<?xml version="1.0" encoding="UTF-8"?>

<!-- generated on Saturday 21 January 2017 12:21:53 PM IST by SUMO gui Version 0.28.0
<?xml version="1.0" encoding="UTF-8"?>

<configuration xmlns:xsi="http://www.w3.org/2001/XMLSchema-instance" xsi:noNamespaceSchemaLocation="http://sumo.dlr.de/xsd/sumo-gui.exeConfiguration.xsd">

    <input>
        <net-file value="data/cross.net.xml"/>
        <route-files value="data/cross.rou.xml"/>
        <additional-files value="data/cross.det.xml"/>
    </input>

    <output>
        <tripinfo-output value="tripinfo.xml"/>
    </output>

    <time>
        <begin value="0"/>
    </time>

    <report>
        <verbose value="true"/>
        <no-step-log value="true"/>
    </report>

    <traci_server>
        <remote-port value="46973"/>
    </traci_server>

</configuration>
-->

<tripinfos xmlns:xsi="http://www.w3.org/2001/XMLSchema-instance" xsi:noNamespaceSchemaLocation="http://sumo.dlr.de/xsd/tripinfo_file.xsd">
    <tripinfo id="up_3" depart="4.00" departLane="53o_0" departPos="5.10" departSpeed="0.00" departDelay="0.00" arrival="95.00" arrivalLane="54i_0" arrivalPos="10.00" arrivalSpeed="11.52" duration="91.00" routeLength="1015.10" waitSteps="0" timeLoss="14.87" rerouteNo="0" devices="tripinfo_up_3" vType="typeNS" vaporized=""/>
    <tripinfo id="up_6" depart="16.00" departLane="53o_0" departPos="5.10" departSpeed="0.00" departDelay="0.00" arrival="109.00" arrivalLane="54i_0" arrivalPos="10.00" arrivalSpeed="11.64" duration="93.00" routeLength="1015.10" waitSteps="0" timeLoss="16.23" rerouteNo="0" devices="tripinfo_up_6" vType="typeNS" vaporized=""/>
    <tripinfo id="up_13" depart="32.00" departLane="53o_0" departPos="5.10" departSpeed="0.00" departDelay="0.00" arrival="123.00" arrivalLane="54i_0" arrivalPos="10.00" arrivalSpeed="11.50" duration="91.00" routeLength="1015.10" waitSteps="0" timeLoss="15.08" rerouteNo="0" devices="tripinfo_up_13" vType="typeNS" vaporized=""/>
    <tripinfo id="left_0" depart="0.00" departLane="52o_0" departPos="5.10" departSpeed="0.00" departDelay="0.00" arrival="123.00" arrivalLane="51i_0" arrivalPos="10.00" arrivalSpeed="11.20" duration="123.00" routeLength="1015.10" waitSteps="21" timeLoss="47.11" rerouteNo="0" devices="tripinfo_left_0" vType="typeWE" vaporized=""/>
    <tripinfo id="right_2" depart="3.00" departLane="51o_0" departPos="5.10" departSpeed="0.00" departDelay="0.00" arrival="123.00" arrivalLane="52i_0" arrivalPos="10.00" arrivalSpeed="11.70" duration="120.00" routeLength="1015.10" waitSteps="17" timeLoss="43.85" rerouteNo="0" devices="tripinfo_right_2" vType="typeWE" vaporized=""/>
    <tripinfo id="down_9" depart="23.00" departLane="54o_0" departPos="5.10" departSpeed="0.00" departDelay="0.00" arrival="130.00" arrivalLane="53i_0" arrivalPos="10.00" arrivalSpeed="11.24" duration="107.00" routeLength="1015.10" waitSteps="7" timeLoss="30.67" rerouteNo="0" devices="tripinfo_down_9" vType="typeNS" vaporized=""/>
    <tripinfo id="left_1" depart="5.00" departLane="52o_0" departPos="5.10" departSpeed="0.00" departDelay="3.00" arrival="138.00" arrivalLane="51i_0" arrivalPos="10.00" arrivalSpeed="11.49" duration="133.00" routeLength="1015.10" waitSteps="24" timeLoss="57.04" rerouteNo="0" devices="tripinfo_left_1" vType="typeWE" vaporized=""/>
    <tripinfo id="right_5" depart="11.00" departLane="51o_0" departPos="5.10" departSpeed="0.00" departDelay="0.00" arrival="138.00" arrivalLane="52i_0" arrivalPos="10.00" arrivalSpeed="11.58" duration="127.00" routeLength="1015.10" waitSteps="20" timeLoss="50.64" rerouteNo="0" devices="tripinfo_right_5" vType="typeWE" vaporized=""/>
    <tripinfo id="left_4" depart="10.00" departLane="52o_0" departPos="5.10" departSpeed="0.00" departDelay="0.00" arrival="153.00" arrivalLane="51i_0" arrivalPos="10.00" arrivalSpeed="10.93" duration="143.00" routeLength="1015.10" waitSteps="26" timeLoss="67.00" rerouteNo="0" devices="tripinfo_left_4" vType="typeWE" vaporized=""/>
    <tripinfo id="right_7" depart="22.00" departLane="51o_0" departPos="5.10" departSpeed="0.00" departDelay="0.00" arrival="153.00" arrivalLane="52i_0" arrivalPos="10.00" arrivalSpeed="10.73" duration="131.00" routeLength="1015.10" waitSteps="17" timeLoss="55.00" rerouteNo="0" devices="tripinfo_right_7" vType="typeWE" vaporized=""/>
    <tripinfo id="down_12" depart="31.00" departLane="54o_0" departPos="5.10" departSpeed="0.00" departDelay="0.00" arrival="162.00" arrivalLane="53i_0" arrivalPos="10.00" arrivalSpeed="11.65" duration="131.00" routeLength="1015.10" waitSteps="25" timeLoss="54.99" rerouteNo="0" devices="tripinfo_down_12" vType="typeNS" vaporized=""/>
    <tripinfo id="up_17" depart="51.00" departLane="53o_0" departPos="5.10" departSpeed="0.00" departDelay="0.00" arrival="175.00" arrivalLane="54i_0" arrivalPos="10.00" arrivalSpeed="11.40" duration="124.00" routeLength="1015.10" waitSteps="21" timeLoss="48.19" rerouteNo="0" devices="tripinfo_up_17" vType="typeNS" vaporized=""/>
    <tripinfo id="left_8" depart="22.00" departLane="52o_0" departPos="5.10" departSpeed="0.00" departDelay="0.00" arrival="183.00" arrivalLane="51i_0" arrivalPos="10.00" arrivalSpeed="11.51" duration="161.00" routeLength="1015.10" waitSteps="40" timeLoss="84.81" rerouteNo="0" devices="tripinfo_left_8" vType="typeWE" vaporized=""/>
    <tripinfo id="right_10" depart="27.00" departLane="51o_0" departPos="5.10" departSpeed="0.00" departDelay="2.00" arrival="183.00" arrivalLane="52i_0" arrivalPos="10.00" arrivalSpeed="11.85" duration="156.00" routeLength="1015.10" waitSteps="37" timeLoss="79.98" rerouteNo="0" devices="tripinfo_right_10" vType="typeWE" vaporized=""/>
    <tripinfo id="up_29" depart="93.00" departLane="53o_0" departPos="5.10" departSpeed="0.00" departDelay="0.00" arrival="186.00" arrivalLane="54i_0" arrivalPos="10.00" arrivalSpeed="11.47" duration="93.00" routeLength="1015.10" waitSteps="0" timeLoss="16.43" rerouteNo="0" devices="tripinfo_up_29" vType="typeNS" vaporized=""/>
    <tripinfo id="down_19" depart="57.00" departLane="54o_0" departPos="5.10" departSpeed="0.00" departDelay="0.00" arrival="193.00" arrivalLane="53i_0" arrivalPos="10.00" arrivalSpeed="11.29" duration="136.00" routeLength="1015.10" waitSteps="28" timeLoss="60.27" rerouteNo="0" devices="tripinfo_down_19" vType="typeNS" vaporized=""/>
    <tripinfo id="left_22" depart="67.00" departLane="52o_0" departPos="5.10" departSpeed="0.00" departDelay="0.00" arrival="202.00" arrivalLane="51i_0" arrivalPos="10.00" arrivalSpeed="11.65" duration="135.00" routeLength="1015.10" waitSteps="26" timeLoss="58.74" rerouteNo="0" devices="tripinfo_left_22" vType="typeWE" vaporized=""/>
    <tripinfo id="right_11" depart="32.00" departLane="51o_0" departPos="5.10" departSpeed="0.00" departDelay="1.00" arrival="202.00" arrivalLane="52i_0" arrivalPos="10.00" arrivalSpeed="11.72" duration="170.00" routeLength="1015.10" waitSteps="44" timeLoss="94.16" rerouteNo="0" devices="tripinfo_right_11" vType="typeWE" vaporized=""/>
    <tripinfo id="down_23" depart="72.00" departLane="54o_0" departPos="5.10" departSpeed="0.00" departDelay="0.00" arrival="211.00" arrivalLane="53i_0" arrivalPos="10.00" arrivalSpeed="11.49" duration="139.00" routeLength="1015.10" waitSteps="29" timeLoss="62.83" rerouteNo="0" devices="tripinfo_down_23" vType="typeNS" vaporized=""/>
    <tripinfo id="up_31" depart="103.00" departLane="53o_0" departPos="5.10" departSpeed="0.00" departDelay="0.00" arrival="211.00" arrivalLane="54i_0" arrivalPos="10.00" arrivalSpeed="11.55" duration="108.00" routeLength="1015.10" waitSteps="6" timeLoss="31.41" rerouteNo="0" devices="tripinfo_up_31" vType="typeNS" vaporized=""/>
    <tripinfo id="left_24" depart="74.00" departLane="52o_0" departPos="5.10" departSpeed="0.00" departDelay="0.00" arrival="223.00" arrivalLane="51i_0" arrivalPos="10.00" arrivalSpeed="11.29" duration="149.00" routeLength="1015.10" waitSteps="32" timeLoss="72.46" rerouteNo="0" devices="tripinfo_left_24" vType="typeWE" vaporized=""/>
    <tripinfo id="right_14" depart="38.00" departLane="51o_0" departPos="5.10" departSpeed="0.00" departDelay="4.00" arrival="223.00" arrivalLane="52i_0" arrivalPos="10.00" arrivalSpeed="11.51" duration="185.00" routeLength="1015.10" waitSteps="52" timeLoss="108.31" rerouteNo="0" devices="tripinfo_right_14" vType="typeWE" vaporized=""/>
    <tripinfo id="up_32" depart="108.00" departLane="53o_0" departPos="5.10" departSpeed="0.00" departDelay="4.00" arrival="231.00" arrivalLane="54i_0" arrivalPos="10.00" arrivalSpeed="11.63" duration="123.00" routeLength="1015.10" waitSteps="18" timeLoss="47.14" rerouteNo="0" devices="tripinfo_up_32" vType="typeNS" vaporized=""/>
    <tripinfo id="down_25" depart="77.00" departLane="54o_0" departPos="5.10" departSpeed="0.00" departDelay="3.00" arrival="232.00" arrivalLane="53i_0" arrivalPos="10.00" arrivalSpeed="11.66" duration="155.00" routeLength="1015.10" waitSteps="38" timeLoss="78.58" rerouteNo="0" devices="tripinfo_down_25" vType="typeNS" vaporized=""/>
    <tripinfo id="right_15" depart="43.00" departLane="51o_0" departPos="5.10" departSpeed="0.00" departDelay="3.00" arrival="239.00" arrivalLane="52i_0" arrivalPos="10.00" arrivalSpeed="11.07" duration="196.00" routeLength="1015.10" waitSteps="55" timeLoss="119.92" rerouteNo="0" devices="tripinfo_right_15" vType="typeWE" vaporized=""/>
    <tripinfo id="left_36" depart="120.00" departLane="52o_0" departPos="5.10" departSpeed="0.00" departDelay="0.00" arrival="239.00" arrivalLane="51i_0" arrivalPos="10.00" arrivalSpeed="11.42" duration="119.00" routeLength="1015.10" waitSteps="12" timeLoss="43.19" rerouteNo="0" devices="tripinfo_left_36" vType="typeWE" vaporized=""/>
    <tripinfo id="up_33" depart="113.00" departLane="53o_0" departPos="5.10" departSpeed="0.00" departDelay="7.00" arrival="251.00" arrivalLane="54i_0" arrivalPos="10.00" arrivalSpeed="10.78" duration="138.00" routeLength="1015.10" waitSteps="26" timeLoss="62.00" rerouteNo="0" devices="tripinfo_up_33" vType="typeNS" vaporized=""/>
    <tripinfo id="down_27" depart="85.00" departLane="54o_0" departPos="5.10" departSpeed="0.00" departDelay="0.00" arrival="252.00" arrivalLane="53i_0" arrivalPos="10.00" arrivalSpeed="11.38" duration="167.00" routeLength="1015.10" waitSteps="46" timeLoss="90.96" rerouteNo="0" devices="tripinfo_down_27" vType="typeNS" vaporized=""/>
    <tripinfo id="left_37" depart="125.00" departLane="52o_0" departPos="5.10" departSpeed="0.00" departDelay="2.00" arrival="261.00" arrivalLane="51i_0" arrivalPos="10.00" arrivalSpeed="11.45" duration="136.00" routeLength="1015.10" waitSteps="25" timeLoss="59.53" rerouteNo="0" devices="tripinfo_left_37" vType="typeWE" vaporized=""/>
    <tripinfo id="right_16" depart="48.00" departLane="51o_0" departPos="5.10" departSpeed="0.00" departDelay="4.00" arrival="261.00" arrivalLane="52i_0" arrivalPos="10.00" arrivalSpeed="11.54" duration="213.00" routeLength="1015.10" waitSteps="69" timeLoss="136.56" rerouteNo="0" devices="tripinfo_right_16" vType="typeWE" vaporized=""/>
    <tripinfo id="down_30" depart="98.00" departLane="54o_0" departPos="5.10" departSpeed="0.00" departDelay="0.00" arrival="284.00" arrivalLane="53i_0" arrivalPos="10.00" arrivalSpeed="11.57" duration="186.00" routeLength="1015.10" waitSteps="60" timeLoss="109.56" rerouteNo="0" devices="tripinfo_down_30" vType="typeNS" vaporized=""/>
    <tripinfo id="up_34" depart="118.00" departLane="53o_0" departPos="5.10" departSpeed="0.00" departDelay="10.00" arrival="284.00" arrivalLane="54i_0" arrivalPos="10.00" arrivalSpeed="11.55" duration="166.00" routeLength="1015.10" waitSteps="49" timeLoss="89.68" rerouteNo="0" devices="tripinfo_up_34" vType="typeNS" vaporized=""/>
    <tripinfo id="left_38" depart="130.00" departLane="52o_0" departPos="5.10" departSpeed="0.00" departDelay="5.00" arrival="291.00" arrivalLane="51i_0" arrivalPos="10.00" arrivalSpeed="11.55" duration="161.00" routeLength="1015.10" waitSteps="45" timeLoss="85.14" rerouteNo="0" devices="tripinfo_left_38" vType="typeWE" vaporized=""/>
    <tripinfo id="right_18" depart="56.00" departLane="51o_0" departPos="5.10" departSpeed="0.00" departDelay="0.00" arrival="292.00" arrivalLane="52i_0" arrivalPos="10.00" arrivalSpeed="11.53" duration="236.00" routeLength="1015.10" waitSteps="89" timeLoss="159.97" rerouteNo="0" devices="tripinfo_right_18" vType="typeWE" vaporized=""/>
    <tripinfo id="up_43" depart="135.00" departLane="53o_0" departPos="5.10" departSpeed="0.00" departDelay="0.00" arrival="303.00" arrivalLane="54i_0" arrivalPos="10.00" arrivalSpeed="10.80" duration="168.00" routeLength="1015.10" waitSteps="47" timeLoss="91.96" rerouteNo="0" devices="tripinfo_up_43" vType="typeNS" vaporized=""/>
    <tripinfo id="down_41" depart="129.00" departLane="54o_0" departPos="5.10" departSpeed="0.00" departDelay="0.00" arrival="304.00" arrivalLane="53i_0" arrivalPos="10.00" arrivalSpeed="11.36" duration="175.00" routeLength="1015.10" waitSteps="51" timeLoss="98.79" rerouteNo="0" devices="tripinfo_down_41" vType="typeNS" vaporized=""/>
    <tripinfo id="left_44" depart="147.00" departLane="52o_0" departPos="5.10" departSpeed="0.00" departDelay="0.00" arrival="326.00" arrivalLane="51i_0" arrivalPos="10.00" arrivalSpeed="11.58" duration="179.00" routeLength="1015.10" waitSteps="62" timeLoss="102.85" rerouteNo="0" devices="tripinfo_left_44" vType="typeWE" vaporized=""/>
    <tripinfo id="up_49" depart="162.00" departLane="53o_0" departPos="5.10" departSpeed="0.00" departDelay="0.00" arrival="334.00" arrivalLane="54i_0" arrivalPos="10.00" arrivalSpeed="10.83" duration="172.00" routeLength="1015.10" waitSteps="53" timeLoss="95.98" rerouteNo="0" devices="tripinfo_up_49" vType="typeNS" vaporized=""/>
    <tripinfo id="down_45" depart="149.00" departLane="54o_0" departPos="5.10" departSpeed="0.00" departDelay="0.00" arrival="334.00" arrivalLane="53i_0" arrivalPos="10.00" arrivalSpeed="11.78" duration="185.00" routeLength="1015.10" waitSteps="61" timeLoss="108.58" rerouteNo="0" devices="tripinfo_down_45" vType="typeNS" vaporized=""/>
    <tripinfo id="left_48" depart="159.00" departLane="52o_0" departPos="5.10" departSpeed="0.00" departDelay="0.00" arrival="341.00" arrivalLane="51i_0" arrivalPos="10.00" arrivalSpeed="11.45" duration="182.00" routeLength="1015.10" waitSteps="59" timeLoss="105.42" rerouteNo="0" devices="tripinfo_left_48" vType="typeWE" vaporized=""/>
    <tripinfo id="right_20" depart="63.00" departLane="51o_0" departPos="5.10" departSpeed="0.00" departDelay="0.00" arrival="341.00" arrivalLane="52i_0" arrivalPos="10.00" arrivalSpeed="11.36" duration="278.00" routeLength="1015.10" waitSteps="122" timeLoss="201.41" rerouteNo="0" devices="tripinfo_right_20" vType="typeWE" vaporized=""/>
    <tripinfo id="down_51" depart="164.00" departLane="54o_0" departPos="5.10" departSpeed="0.00" departDelay="0.00" arrival="349.00" arrivalLane="53i_0" arrivalPos="10.00" arrivalSpeed="11.44" duration="185.00" routeLength="1015.10" waitSteps="60" timeLoss="108.70" rerouteNo="0" devices="tripinfo_down_51" vType="typeNS" vaporized=""/>
    <tripinfo id="up_52" depart="170.00" departLane="53o_0" departPos="5.10" departSpeed="0.00" departDelay="0.00" arrival="349.00" arrivalLane="54i_0" arrivalPos="10.00" arrivalSpeed="11.55" duration="179.00" routeLength="1015.10" waitSteps="53" timeLoss="102.47" rerouteNo="0" devices="tripinfo_up_52" vType="typeNS" vaporized=""/>
    <tripinfo id="left_59" depart="204.00" departLane="52o_0" departPos="5.10" departSpeed="0.00" departDelay="0.00" arrival="370.00" arrivalLane="51i_0" arrivalPos="10.00" arrivalSpeed="11.68" duration="166.00" routeLength="1015.10" waitSteps="50" timeLoss="90.06" rerouteNo="0" devices="tripinfo_left_59" vType="typeWE" vaporized=""/>
    <tripinfo id="right_21" depart="68.00" departLane="51o_0" departPos="5.10" departSpeed="0.00" departDelay="4.00" arrival="371.00" arrivalLane="52i_0" arrivalPos="10.00" arrivalSpeed="11.41" duration="303.00" routeLength="1015.10" waitSteps="139" timeLoss="226.72" rerouteNo="0" devices="tripinfo_right_21" vType="typeWE" vaporized=""/>
    <tripinfo id="down_60" depart="206.00" departLane="54o_0" departPos="5.10" departSpeed="0.00" departDelay="0.00" arrival="377.00" arrivalLane="53i_0" arrivalPos="10.00" arrivalSpeed="11.57" duration="171.00" routeLength="1015.10" waitSteps="48" timeLoss="94.93" rerouteNo="0" devices="tripinfo_down_60" vType="typeNS" vaporized=""/>
    <tripinfo id="up_54" depart="175.00" departLane="53o_0" departPos="5.10" departSpeed="0.00" departDelay="0.00" arrival="377.00" arrivalLane="54i_0" arrivalPos="10.00" arrivalSpeed="11.37" duration="202.00" routeLength="1015.10" waitSteps="71" timeLoss="125.39" rerouteNo="0" devices="tripinfo_up_54" vType="typeNS" vaporized=""/>
    <tripinfo id="left_72" depart="253.00" departLane="52o_0" departPos="5.10" departSpeed="0.00" departDelay="0.00" arrival="385.00" arrivalLane="51i_0" arrivalPos="10.00" arrivalSpeed="11.48" duration="132.00" routeLength="1015.10" waitSteps="23" timeLoss="56.21" rerouteNo="0" devices="tripinfo_left_72" vType="typeWE" vaporized=""/>
    <tripinfo id="right_26" depart="81.00" departLane="51o_0" departPos="5.10" departSpeed="0.00" departDelay="0.00" arrival="385.00" arrivalLane="52i_0" arrivalPos="10.00" arrivalSpeed="11.59" duration="304.00" routeLength="1015.10" waitSteps="141" timeLoss="227.45" rerouteNo="0" devices="tripinfo_right_26" vType="typeWE" vaporized=""/>
    <tripinfo id="down_64" depart="220.00" departLane="54o_0" departPos="5.10" departSpeed="0.00" departDelay="0.00" arrival="397.00" arrivalLane="53i_0" arrivalPos="10.00" arrivalSpeed="11.57" duration="177.00" routeLength="1015.10" waitSteps="51" timeLoss="100.63" rerouteNo="0" devices="tripinfo_down_64" vType="typeNS" vaporized=""/>
    <tripinfo id="up_55" depart="181.00" departLane="53o_0" departPos="5.10" departSpeed="0.00" departDelay="3.00" arrival="397.00" arrivalLane="54i_0" arrivalPos="10.00" arrivalSpeed="11.41" duration="216.00" routeLength="1015.10" waitSteps="79" timeLoss="140.12" rerouteNo="0" devices="tripinfo_up_55" vType="typeNS" vaporized=""/>
    <tripinfo id="left_75" depart="258.00" departLane="52o_0" departPos="5.10" departSpeed="0.00" departDelay="0.00" arrival="409.00" arrivalLane="51i_0" arrivalPos="10.00" arrivalSpeed="11.35" duration="151.00" routeLength="1015.10" waitSteps="38" timeLoss="74.92" rerouteNo="0" devices="tripinfo_left_75" vType="typeWE" vaporized=""/>
    <tripinfo id="right_28" depart="92.00" departLane="51o_0" departPos="5.10" departSpeed="0.00" departDelay="0.00" arrival="410.00" arrivalLane="52i_0" arrivalPos="10.00" arrivalSpeed="11.75" duration="318.00" routeLength="1015.10" waitSteps="143" timeLoss="241.52" rerouteNo="0" devices="tripinfo_right_28" vType="typeWE" vaporized=""/>
    <tripinfo id="down_67" depart="241.00" departLane="54o_0" departPos="5.10" departSpeed="0.00" departDelay="0.00" arrival="416.00" arrivalLane="53i_0" arrivalPos="10.00" arrivalSpeed="11.45" duration="175.00" routeLength="1015.10" waitSteps="51" timeLoss="98.41" rerouteNo="0" devices="tripinfo_down_67" vType="typeNS" vaporized=""/>
    <tripinfo id="down_73" depart="254.00" departLane="54o_0" departPos="5.10" departSpeed="0.00" departDelay="0.00" arrival="431.00" arrivalLane="53i_0" arrivalPos="10.00" arrivalSpeed="11.73" duration="177.00" routeLength="1015.10" waitSteps="50" timeLoss="100.99" rerouteNo="0" devices="tripinfo_down_73" vType="typeNS" vaporized=""/>
    <tripinfo id="up_61" depart="212.00" departLane="53o_0" departPos="5.10" departSpeed="0.00" departDelay="0.00" arrival="431.00" arrivalLane="54i_0" arrivalPos="10.00" arrivalSpeed="11.28" duration="219.00" routeLength="1015.10" waitSteps="83" timeLoss="142.37" rerouteNo="0" devices="tripinfo_up_61" vType="typeNS" vaporized=""/>
    <tripinfo id="right_35" depart="115.00" departLane="51o_0" departPos="5.10" departSpeed="0.00" departDelay="0.00" arrival="440.00" arrivalLane="52i_0" arrivalPos="10.00" arrivalSpeed="11.26" duration="325.00" routeLength="1015.10" waitSteps="147" timeLoss="249.12" rerouteNo="0" devices="tripinfo_right_35" vType="typeWE" vaporized=""/>
    <tripinfo id="left_78" depart="263.00" departLane="52o_0" departPos="5.10" departSpeed="0.00" departDelay="1.00" arrival="441.00" arrivalLane="51i_0" arrivalPos="10.00" arrivalSpeed="11.22" duration="178.00" routeLength="1015.10" waitSteps="57" timeLoss="101.51" rerouteNo="0" devices="tripinfo_left_78" vType="typeWE" vaporized=""/>
    <tripinfo id="down_74" depart="259.00" departLane="54o_0" departPos="5.10" departSpeed="0.00" departDelay="3.00" arrival="465.00" arrivalLane="53i_0" arrivalPos="10.00" arrivalSpeed="11.06" duration="206.00" routeLength="1015.10" waitSteps="73" timeLoss="130.02" rerouteNo="0" devices="tripinfo_down_74" vType="typeNS" vaporized=""/>
    <tripinfo id="up_68" depart="242.00" departLane="53o_0" departPos="5.10" departSpeed="0.00" departDelay="0.00" arrival="466.00" arrivalLane="54i_0" arrivalPos="10.00" arrivalSpeed="11.59" duration="224.00" routeLength="1015.10" waitSteps="89" timeLoss="147.65" rerouteNo="0" devices="tripinfo_up_68" vType="typeNS" vaporized=""/>
    <tripinfo id="right_39" depart="126.00" departLane="51o_0" departPos="5.10" departSpeed="0.00" departDelay="0.00" arrival="473.00" arrivalLane="52i_0" arrivalPos="10.00" arrivalSpeed="11.11" duration="347.00" routeLength="1015.10" waitSteps="171" timeLoss="270.90" rerouteNo="0" devices="tripinfo_right_39" vType="typeWE" vaporized=""/>
    <tripinfo id="left_83" depart="281.00" departLane="52o_0" departPos="5.10" departSpeed="0.00" departDelay="0.00" arrival="474.00" arrivalLane="51i_0" arrivalPos="10.00" arrivalSpeed="11.53" duration="193.00" routeLength="1015.10" waitSteps="71" timeLoss="116.50" rerouteNo="0" devices="tripinfo_left_83" vType="typeWE" vaporized=""/>
    <tripinfo id="up_70" depart="248.00" departLane="53o_0" departPos="5.10" departSpeed="0.00" departDelay="0.00" arrival="497.00" arrivalLane="54i_0" arrivalPos="10.00" arrivalSpeed="11.06" duration="249.00" routeLength="1015.10" waitSteps="112" timeLoss="172.97" rerouteNo="0" devices="tripinfo_up_70" vType="typeNS" vaporized=""/>
    <tripinfo id="down_76" depart="264.00" departLane="54o_0" departPos="5.10" departSpeed="0.00" departDelay="6.00" arrival="498.00" arrivalLane="53i_0" arrivalPos="10.00" arrivalSpeed="11.24" duration="234.00" routeLength="1015.10" waitSteps="91" timeLoss="157.37" rerouteNo="0" devices="tripinfo_down_76" vType="typeNS" vaporized=""/>
    <tripinfo id="left_84" depart="286.00" departLane="52o_0" departPos="5.10" departSpeed="0.00" departDelay="3.00" arrival="504.00" arrivalLane="51i_0" arrivalPos="10.00" arrivalSpeed="11.68" duration="218.00" routeLength="1015.10" waitSteps="87" timeLoss="142.17" rerouteNo="0" devices="tripinfo_left_84" vType="typeWE" vaporized=""/>
    <tripinfo id="right_40" depart="131.00" departLane="51o_0" departPos="5.10" departSpeed="0.00" departDelay="4.00" arrival="504.00" arrivalLane="52i_0" arrivalPos="10.00" arrivalSpeed="11.58" duration="373.00" routeLength="1015.10" waitSteps="187" timeLoss="296.43" rerouteNo="0" devices="tripinfo_right_40" vType="typeWE" vaporized=""/>
    <tripinfo id="up_77" depart="259.00" departLane="53o_0" departPos="5.10" departSpeed="0.00" departDelay="0.00" arrival="526.00" arrivalLane="54i_0" arrivalPos="10.00" arrivalSpeed="11.62" duration="267.00" routeLength="1015.10" waitSteps="122" timeLoss="190.67" rerouteNo="0" devices="tripinfo_up_77" vType="typeNS" vaporized=""/>
    <tripinfo id="down_80" depart="269.00" departLane="54o_0" departPos="5.10" departSpeed="0.00" departDelay="4.00" arrival="527.00" arrivalLane="53i_0" arrivalPos="10.00" arrivalSpeed="11.83" duration="258.00" routeLength="1015.10" waitSteps="107" timeLoss="181.87" rerouteNo="0" devices="tripinfo_down_80" vType="typeNS" vaporized=""/>
    <tripinfo id="right_42" depart="136.00" departLane="51o_0" departPos="5.10" departSpeed="0.00" departDelay="4.00" arrival="533.00" arrivalLane="52i_0" arrivalPos="10.00" arrivalSpeed="11.30" duration="397.00" routeLength="1015.10" waitSteps="199" timeLoss="320.67" rerouteNo="0" devices="tripinfo_right_42" vType="typeWE" vaporized=""/>
    <tripinfo id="left_87" depart="292.00" departLane="52o_0" departPos="5.10" departSpeed="0.00" departDelay="1.00" arrival="534.00" arrivalLane="51i_0" arrivalPos="10.00" arrivalSpeed="11.31" duration="242.00" routeLength="1015.10" waitSteps="103" timeLoss="165.81" rerouteNo="0" devices="tripinfo_left_87" vType="typeWE" vaporized=""/>
    <tripinfo id="left_92" depart="297.00" departLane="52o_0" departPos="5.10" departSpeed="0.00" departDelay="1.00" arrival="546.00" arrivalLane="51i_0" arrivalPos="10.00" arrivalSpeed="11.50" duration="249.00" routeLength="1015.10" waitSteps="105" timeLoss="172.75" rerouteNo="0" devices="tripinfo_left_92" vType="typeWE" vaporized=""/>
    <tripinfo id="right_46" depart="150.00" departLane="51o_0" departPos="5.10" departSpeed="0.00" departDelay="0.00" arrival="548.00" arrivalLane="52i_0" arrivalPos="10.00" arrivalSpeed="11.23" duration="398.00" routeLength="1015.10" waitSteps="201" timeLoss="321.20" rerouteNo="0" devices="tripinfo_right_46" vType="typeWE" vaporized=""/>
    <tripinfo id="up_79" depart="264.00" departLane="53o_0" departPos="5.10" departSpeed="0.00" departDelay="1.00" arrival="555.00" arrivalLane="54i_0" arrivalPos="10.00" arrivalSpeed="11.36" duration="291.00" routeLength="1015.10" waitSteps="136" timeLoss="215.20" rerouteNo="0" devices="tripinfo_up_79" vType="typeNS" vaporized=""/>
    <tripinfo id="down_89" depart="293.00" departLane="54o_0" departPos="5.10" departSpeed="0.00" departDelay="0.00" arrival="556.00" arrivalLane="53i_0" arrivalPos="10.00" arrivalSpeed="11.47" duration="263.00" routeLength="1015.10" waitSteps="113" timeLoss="186.57" rerouteNo="0" devices="tripinfo_down_89" vType="typeNS" vaporized=""/>
    <tripinfo id="left_93" depart="303.00" departLane="52o_0" departPos="5.10" departSpeed="0.00" departDelay="5.00" arrival="577.00" arrivalLane="51i_0" arrivalPos="10.00" arrivalSpeed="11.33" duration="274.00" routeLength="1015.10" waitSteps="120" timeLoss="197.78" rerouteNo="0" devices="tripinfo_left_93" vType="typeWE" vaporized=""/>
    <tripinfo id="right_47" depart="155.00" departLane="51o_0" departPos="5.10" departSpeed="0.00" departDelay="3.00" arrival="577.00" arrivalLane="52i_0" arrivalPos="10.00" arrivalSpeed="11.61" duration="422.00" routeLength="1015.10" waitSteps="215" timeLoss="345.79" rerouteNo="0" devices="tripinfo_right_47" vType="typeWE" vaporized=""/>
    <tripinfo id="down_90" depart="298.00" departLane="54o_0" departPos="5.10" departSpeed="0.00" departDelay="3.00" arrival="586.00" arrivalLane="53i_0" arrivalPos="10.00" arrivalSpeed="11.18" duration="288.00" routeLength="1015.10" waitSteps="130" timeLoss="211.75" rerouteNo="0" devices="tripinfo_down_90" vType="typeNS" vaporized=""/>
    <tripinfo id="up_82" depart="272.00" departLane="53o_0" departPos="5.10" departSpeed="0.00" departDelay="0.00" arrival="586.00" arrivalLane="54i_0" arrivalPos="10.00" arrivalSpeed="11.73" duration="314.00" routeLength="1015.10" waitSteps="148" timeLoss="237.36" rerouteNo="0" devices="tripinfo_up_82" vType="typeNS" vaporized=""/>
    <tripinfo id="down_97" depart="311.00" departLane="54o_0" departPos="5.10" departSpeed="0.00" departDelay="0.00" arrival="600.00" arrivalLane="53i_0" arrivalPos="10.00" arrivalSpeed="11.60" duration="289.00" routeLength="1015.10" waitSteps="124" timeLoss="212.30" rerouteNo="0" devices="tripinfo_down_97" vType="typeNS" vaporized=""/>
    <tripinfo id="up_85" depart="284.00" departLane="53o_0" departPos="5.10" departSpeed="0.00" departDelay="0.00" arrival="600.00" arrivalLane="54i_0" arrivalPos="10.00" arrivalSpeed="11.24" duration="316.00" routeLength="1015.10" waitSteps="145" timeLoss="239.36" rerouteNo="0" devices="tripinfo_up_85" vType="typeNS" vaporized=""/>
    <tripinfo id="right_50" depart="164.00" departLane="51o_0" departPos="5.10" departSpeed="0.00" departDelay="0.00" arrival="607.00" arrivalLane="52i_0" arrivalPos="10.00" arrivalSpeed="11.02" duration="443.00" routeLength="1015.10" waitSteps="233" timeLoss="366.81" rerouteNo="0" devices="tripinfo_right_50" vType="typeWE" vaporized=""/>
    <tripinfo id="left_101" depart="343.00" departLane="52o_0" departPos="5.10" departSpeed="0.00" departDelay="0.00" arrival="607.00" arrivalLane="51i_0" arrivalPos="10.00" arrivalSpeed="11.86" duration="264.00" routeLength="1015.10" waitSteps="112" timeLoss="187.92" rerouteNo="0" devices="tripinfo_left_101" vType="typeWE" vaporized=""/>
    <tripinfo id="down_100" depart="330.00" departLane="54o_0" departPos="5.10" departSpeed="0.00" departDelay="0.00" arrival="617.00" arrivalLane="53i_0" arrivalPos="10.00" arrivalSpeed="11.35" duration="287.00" routeLength="1015.10" waitSteps="118" timeLoss="210.46" rerouteNo="0" devices="tripinfo_down_100" vType="typeNS" vaporized=""/>
    <tripinfo id="up_103" depart="344.00" departLane="53o_0" departPos="5.10" departSpeed="0.00" departDelay="0.00" arrival="617.00" arrivalLane="54i_0" arrivalPos="10.00" arrivalSpeed="11.18" duration="273.00" routeLength="1015.10" waitSteps="114" timeLoss="197.01" rerouteNo="0" devices="tripinfo_up_103" vType="typeNS" vaporized=""/>
    <tripinfo id="right_53" depart="171.00" departLane="51o_0" departPos="5.10" departSpeed="0.00" departDelay="0.00" arrival="625.00" arrivalLane="52i_0" arrivalPos="10.00" arrivalSpeed="11.75" duration="454.00" routeLength="1015.10" waitSteps="234" timeLoss="377.19" rerouteNo="0" devices="tripinfo_right_53" vType="typeWE" vaporized=""/>
    <tripinfo id="left_106" depart="350.00" departLane="52o_0" departPos="5.10" departSpeed="0.00" departDelay="0.00" arrival="626.00" arrivalLane="51i_0" arrivalPos="10.00" arrivalSpeed="11.70" duration="276.00" routeLength="1015.10" waitSteps="111" timeLoss="199.37" rerouteNo="0" devices="tripinfo_left_106" vType="typeWE" vaporized=""/>