<?xml version="1.0" encoding="UTF-8"?>

<!-- generated on Tuesday 24 January 2017 10:45:07 PM IST by SUMO gui Version 0.28.0
<?xml version="1.0" encoding="UTF-8"?>

<configuration xmlns:xsi="http://www.w3.org/2001/XMLSchema-instance" xsi:noNamespaceSchemaLocation="http://sumo.dlr.de/xsd/sumo-gui.exeConfiguration.xsd">

    <input>
        <net-file value="data/cross.net.xml"/>
        <route-files value="data/cross.rou.xml"/>
        <additional-files value="data/cross.det.xml"/>
    </input>

    <output>
        <tripinfo-output value="tripinfo.xml"/>
    </output>

    <time>
        <begin value="0"/>
    </time>

    <report>
        <verbose value="true"/>
        <no-step-log value="true"/>
    </report>

    <traci_server>
        <remote-port value="46093"/>
    </traci_server>

</configuration>
-->

<tripinfos xmlns:xsi="http://www.w3.org/2001/XMLSchema-instance" xsi:noNamespaceSchemaLocation="http://sumo.dlr.de/xsd/tripinfo_file.xsd">
    <tripinfo id="down_1" depart="0.00" departLane="54o_0" departPos="5.10" departSpeed="0.00" departDelay="0.00" arrival="91.00" arrivalLane="53i_0" arrivalPos="10.00" arrivalSpeed="10.72" duration="91.00" routeLength="1015.10" waitSteps="0" timeLoss="14.83" rerouteNo="0" devices="tripinfo_down_1" vType="typeNS" vaporized=""/>
    <tripinfo id="up_4" depart="2.00" departLane="53o_0" departPos="5.10" departSpeed="0.00" departDelay="0.00" arrival="93.00" arrivalLane="54i_0" arrivalPos="10.00" arrivalSpeed="11.50" duration="91.00" routeLength="1015.10" waitSteps="0" timeLoss="15.00" rerouteNo="0" devices="tripinfo_up_4" vType="typeNS" vaporized=""/>
    <tripinfo id="up_7" depart="7.00" departLane="53o_0" departPos="5.10" departSpeed="0.00" departDelay="3.00" arrival="98.00" arrivalLane="54i_0" arrivalPos="10.00" arrivalSpeed="11.71" duration="91.00" routeLength="1015.10" waitSteps="0" timeLoss="14.99" rerouteNo="0" devices="tripinfo_up_7" vType="typeNS" vaporized=""/>
    <tripinfo id="down_12" depart="9.00" departLane="54o_0" departPos="5.10" departSpeed="0.00" departDelay="0.00" arrival="100.00" arrivalLane="53i_0" arrivalPos="10.00" arrivalSpeed="11.42" duration="91.00" routeLength="1015.10" waitSteps="0" timeLoss="14.87" rerouteNo="0" devices="tripinfo_down_12" vType="typeNS" vaporized=""/>
    <tripinfo id="up_8" depart="12.00" departLane="53o_0" departPos="5.10" departSpeed="0.00" departDelay="7.00" arrival="103.00" arrivalLane="54i_0" arrivalPos="10.00" arrivalSpeed="11.78" duration="91.00" routeLength="1015.10" waitSteps="0" timeLoss="14.85" rerouteNo="0" devices="tripinfo_up_8" vType="typeNS" vaporized=""/>
    <tripinfo id="down_16" depart="14.00" departLane="54o_0" departPos="5.10" departSpeed="0.00" departDelay="1.00" arrival="106.00" arrivalLane="53i_0" arrivalPos="10.00" arrivalSpeed="11.36" duration="92.00" routeLength="1015.10" waitSteps="0" timeLoss="15.35" rerouteNo="0" devices="tripinfo_down_16" vType="typeNS" vaporized=""/>
    <tripinfo id="up_15" depart="17.00" departLane="53o_0" departPos="5.10" departSpeed="0.00" departDelay="7.00" arrival="108.00" arrivalLane="54i_0" arrivalPos="10.00" arrivalSpeed="11.29" duration="91.00" routeLength="1015.10" waitSteps="0" timeLoss="14.42" rerouteNo="0" devices="tripinfo_up_15" vType="typeNS" vaporized=""/>
    <tripinfo id="right_2" depart="2.00" departLane="51o_0" departPos="5.10" departSpeed="0.00" departDelay="0.00" arrival="116.00" arrivalLane="52i_0" arrivalPos="10.00" arrivalSpeed="10.98" duration="114.00" routeLength="1015.10" waitSteps="14" timeLoss="38.02" rerouteNo="0" devices="tripinfo_right_2" vType="typeWE" vaporized=""/>
    <tripinfo id="left_0" depart="0.00" departLane="52o_0" departPos="5.10" departSpeed="0.00" departDelay="0.00" arrival="117.00" arrivalLane="51i_0" arrivalPos="10.00" arrivalSpeed="11.26" duration="117.00" routeLength="1015.10" waitSteps="16" timeLoss="41.06" rerouteNo="0" devices="tripinfo_left_0" vType="typeWE" vaporized=""/>
    <tripinfo id="right_9" depart="7.00" departLane="51o_0" departPos="5.10" departSpeed="0.00" departDelay="0.00" arrival="119.00" arrivalLane="52i_0" arrivalPos="10.00" arrivalSpeed="10.92" duration="112.00" routeLength="1015.10" waitSteps="9" timeLoss="36.03" rerouteNo="0" devices="tripinfo_right_9" vType="typeWE" vaporized=""/>
    <tripinfo id="left_3" depart="5.00" departLane="52o_0" departPos="5.10" departSpeed="0.00" departDelay="3.00" arrival="119.00" arrivalLane="51i_0" arrivalPos="10.00" arrivalSpeed="11.74" duration="114.00" routeLength="1015.10" waitSteps="11" timeLoss="38.12" rerouteNo="0" devices="tripinfo_left_3" vType="typeWE" vaporized=""/>
    <tripinfo id="left_5" depart="10.00" departLane="52o_0" departPos="5.10" departSpeed="0.00" departDelay="7.00" arrival="121.00" arrivalLane="51i_0" arrivalPos="10.00" arrivalSpeed="11.56" duration="111.00" routeLength="1015.10" waitSteps="8" timeLoss="35.12" rerouteNo="0" devices="tripinfo_left_5" vType="typeWE" vaporized=""/>
    <tripinfo id="right_10" depart="12.00" departLane="51o_0" departPos="5.10" departSpeed="0.00" departDelay="4.00" arrival="122.00" arrivalLane="52i_0" arrivalPos="10.00" arrivalSpeed="11.19" duration="110.00" routeLength="1015.10" waitSteps="6" timeLoss="33.45" rerouteNo="0" devices="tripinfo_right_10" vType="typeWE" vaporized=""/>
    <tripinfo id="left_6" depart="15.00" departLane="52o_0" departPos="5.10" departSpeed="0.00" departDelay="11.00" arrival="124.00" arrivalLane="51i_0" arrivalPos="10.00" arrivalSpeed="11.44" duration="109.00" routeLength="1015.10" waitSteps="5" timeLoss="32.36" rerouteNo="0" devices="tripinfo_left_6" vType="typeWE" vaporized=""/>
    <tripinfo id="right_11" depart="17.00" departLane="51o_0" departPos="5.10" departSpeed="0.00" departDelay="8.00" arrival="124.00" arrivalLane="52i_0" arrivalPos="10.00" arrivalSpeed="8.31" duration="107.00" routeLength="1015.10" waitSteps="2" timeLoss="30.89" rerouteNo="0" devices="tripinfo_right_11" vType="typeWE" vaporized=""/>
    <tripinfo id="left_14" depart="20.00" departLane="52o_0" departPos="5.10" departSpeed="0.00" departDelay="10.00" arrival="126.00" arrivalLane="51i_0" arrivalPos="10.00" arrivalSpeed="9.09" duration="106.00" routeLength="1015.10" waitSteps="0" timeLoss="30.00" rerouteNo="0" devices="tripinfo_left_14" vType="typeWE" vaporized=""/>
    <tripinfo id="right_13" depart="22.00" departLane="51o_0" departPos="5.10" departSpeed="0.00" departDelay="12.00" arrival="126.00" arrivalLane="52i_0" arrivalPos="10.00" arrivalSpeed="10.05" duration="104.00" routeLength="1015.10" waitSteps="0" timeLoss="27.93" rerouteNo="0" devices="tripinfo_right_13" vType="typeWE" vaporized=""/>
    <tripinfo id="left_24" depart="26.00" departLane="52o_0" departPos="5.10" departSpeed="0.00" departDelay="5.00" arrival="128.00" arrivalLane="51i_0" arrivalPos="10.00" arrivalSpeed="10.27" duration="102.00" routeLength="1015.10" waitSteps="0" timeLoss="25.88" rerouteNo="0" devices="tripinfo_left_24" vType="typeWE" vaporized=""/>
    <tripinfo id="right_17" depart="27.00" departLane="51o_0" departPos="5.10" departSpeed="0.00" departDelay="12.00" arrival="128.00" arrivalLane="52i_0" arrivalPos="10.00" arrivalSpeed="9.90" duration="101.00" routeLength="1015.10" waitSteps="0" timeLoss="24.86" rerouteNo="0" devices="tripinfo_right_17" vType="typeWE" vaporized=""/>
    <tripinfo id="left_35" depart="31.00" departLane="52o_0" departPos="5.10" departSpeed="0.00" departDelay="2.00" arrival="130.00" arrivalLane="51i_0" arrivalPos="10.00" arrivalSpeed="9.75" duration="99.00" routeLength="1015.10" waitSteps="0" timeLoss="22.87" rerouteNo="0" devices="tripinfo_left_35" vType="typeWE" vaporized=""/>
    <tripinfo id="right_18" depart="32.00" departLane="51o_0" departPos="5.10" departSpeed="0.00" departDelay="16.00" arrival="130.00" arrivalLane="52i_0" arrivalPos="10.00" arrivalSpeed="10.29" duration="98.00" routeLength="1015.10" waitSteps="0" timeLoss="21.78" rerouteNo="0" devices="tripinfo_right_18" vType="typeWE" vaporized=""/>
    <tripinfo id="left_39" depart="36.00" departLane="52o_0" departPos="5.10" departSpeed="0.00" departDelay="4.00" arrival="132.00" arrivalLane="51i_0" arrivalPos="10.00" arrivalSpeed="9.55" duration="96.00" routeLength="1015.10" waitSteps="0" timeLoss="19.89" rerouteNo="0" devices="tripinfo_left_39" vType="typeWE" vaporized=""/>
    <tripinfo id="right_19" depart="38.00" departLane="51o_0" departPos="5.10" departSpeed="0.00" departDelay="21.00" arrival="132.00" arrivalLane="52i_0" arrivalPos="10.00" arrivalSpeed="9.48" duration="94.00" routeLength="1015.10" waitSteps="0" timeLoss="18.08" rerouteNo="0" devices="tripinfo_right_19" vType="typeWE" vaporized=""/>
    <tripinfo id="left_45" depart="41.00" departLane="52o_0" departPos="5.10" departSpeed="0.00" departDelay="1.00" arrival="134.00" arrivalLane="51i_0" arrivalPos="10.00" arrivalSpeed="9.62" duration="93.00" routeLength="1015.10" waitSteps="0" timeLoss="16.93" rerouteNo="0" devices="tripinfo_left_45" vType="typeWE" vaporized=""/>
    <tripinfo id="right_22" depart="43.00" departLane="51o_0" departPos="5.10" departSpeed="0.00" departDelay="23.00" arrival="134.00" arrivalLane="52i_0" arrivalPos="10.00" arrivalSpeed="10.63" duration="91.00" routeLength="1015.10" waitSteps="0" timeLoss="15.09" rerouteNo="0" devices="tripinfo_right_22" vType="typeWE" vaporized=""/>
    <tripinfo id="left_54" depart="47.00" departLane="52o_0" departPos="5.10" departSpeed="0.00" departDelay="0.00" arrival="139.00" arrivalLane="51i_0" arrivalPos="10.00" arrivalSpeed="11.72" duration="92.00" routeLength="1015.10" waitSteps="0" timeLoss="15.81" rerouteNo="0" devices="tripinfo_left_54" vType="typeWE" vaporized=""/>
    <tripinfo id="right_23" depart="48.00" departLane="51o_0" departPos="5.10" departSpeed="0.00" departDelay="27.00" arrival="140.00" arrivalLane="52i_0" arrivalPos="10.00" arrivalSpeed="11.63" duration="92.00" routeLength="1015.10" waitSteps="0" timeLoss="15.76" rerouteNo="0" devices="tripinfo_right_23" vType="typeWE" vaporized=""/>
    <tripinfo id="right_26" depart="53.00" departLane="51o_0" departPos="5.10" departSpeed="0.00" departDelay="31.00" arrival="143.00" arrivalLane="52i_0" arrivalPos="10.00" arrivalSpeed="11.45" duration="90.00" routeLength="1015.10" waitSteps="0" timeLoss="13.95" rerouteNo="0" devices="tripinfo_right_26" vType="typeWE" vaporized=""/>
    <tripinfo id="right_27" depart="58.00" departLane="51o_0" departPos="5.10" departSpeed="0.00" departDelay="35.00" arrival="149.00" arrivalLane="52i_0" arrivalPos="10.00" arrivalSpeed="11.33" duration="91.00" routeLength="1015.10" waitSteps="0" timeLoss="14.80" rerouteNo="0" devices="tripinfo_right_27" vType="typeWE" vaporized=""/>
    <tripinfo id="left_71" depart="59.00" departLane="52o_0" departPos="5.10" departSpeed="0.00" departDelay="0.00" arrival="151.00" arrivalLane="51i_0" arrivalPos="10.00" arrivalSpeed="11.75" duration="92.00" routeLength="1015.10" waitSteps="0" timeLoss="15.33" rerouteNo="0" devices="tripinfo_left_71" vType="typeWE" vaporized=""/>
    <tripinfo id="right_30" depart="63.00" departLane="51o_0" departPos="5.10" departSpeed="0.00" departDelay="38.00" arrival="155.00" arrivalLane="52i_0" arrivalPos="10.00" arrivalSpeed="11.65" duration="92.00" routeLength="1015.10" waitSteps="0" timeLoss="15.35" rerouteNo="0" devices="tripinfo_right_30" vType="typeWE" vaporized=""/>
    <tripinfo id="left_72" depart="64.00" departLane="52o_0" departPos="5.10" departSpeed="0.00" departDelay="3.00" arrival="156.00" arrivalLane="51i_0" arrivalPos="10.00" arrivalSpeed="11.78" duration="92.00" routeLength="1015.10" waitSteps="0" timeLoss="15.63" rerouteNo="0" devices="tripinfo_left_72" vType="typeWE" vaporized=""/>
    <tripinfo id="left_76" depart="69.00" departLane="52o_0" departPos="5.10" departSpeed="0.00" departDelay="6.00" arrival="161.00" arrivalLane="51i_0" arrivalPos="10.00" arrivalSpeed="11.26" duration="92.00" routeLength="1015.10" waitSteps="0" timeLoss="15.43" rerouteNo="0" devices="tripinfo_left_76" vType="typeWE" vaporized=""/>
    <tripinfo id="right_32" depart="68.00" departLane="51o_0" departPos="5.10" departSpeed="0.00" departDelay="42.00" arrival="161.00" arrivalLane="52i_0" arrivalPos="10.00" arrivalSpeed="11.54" duration="93.00" routeLength="1015.10" waitSteps="0" timeLoss="16.66" rerouteNo="0" devices="tripinfo_right_32" vType="typeWE" vaporized=""/>
    <tripinfo id="left_77" depart="74.00" departLane="52o_0" departPos="5.10" departSpeed="0.00" departDelay="10.00" arrival="166.00" arrivalLane="51i_0" arrivalPos="10.00" arrivalSpeed="11.65" duration="92.00" routeLength="1015.10" waitSteps="0" timeLoss="15.19" rerouteNo="0" devices="tripinfo_left_77" vType="typeWE" vaporized=""/>
    <tripinfo id="right_37" depart="74.00" departLane="51o_0" departPos="5.10" departSpeed="0.00" departDelay="43.00" arrival="166.00" arrivalLane="52i_0" arrivalPos="10.00" arrivalSpeed="11.83" duration="92.00" routeLength="1015.10" waitSteps="0" timeLoss="15.82" rerouteNo="0" devices="tripinfo_right_37" vType="typeWE" vaporized=""/>
    <tripinfo id="down_20" depart="19.00" departLane="54o_0" departPos="5.10" departSpeed="0.00" departDelay="2.00" arrival="179.00" arrivalLane="53i_0" arrivalPos="10.00" arrivalSpeed="11.24" duration="160.00" routeLength="1015.10" waitSteps="59" timeLoss="83.46" rerouteNo="0" devices="tripinfo_down_20" vType="typeNS" vaporized=""/>
    <tripinfo id="up_21" depart="22.00" departLane="53o_0" departPos="5.10" departSpeed="0.00" departDelay="4.00" arrival="180.00" arrivalLane="54i_0" arrivalPos="10.00" arrivalSpeed="11.26" duration="158.00" routeLength="1015.10" waitSteps="56" timeLoss="81.52" rerouteNo="0" devices="tripinfo_up_21" vType="typeNS" vaporized=""/>
    <tripinfo id="down_25" depart="24.00" departLane="54o_0" departPos="5.10" departSpeed="0.00" departDelay="3.00" arrival="181.00" arrivalLane="53i_0" arrivalPos="10.00" arrivalSpeed="10.90" duration="157.00" routeLength="1015.10" waitSteps="56" timeLoss="80.92" rerouteNo="0" devices="tripinfo_down_25" vType="typeNS" vaporized=""/>
    <tripinfo id="up_42" depart="35.00" departLane="53o_0" departPos="5.10" departSpeed="0.00" departDelay="0.00" arrival="182.00" arrivalLane="54i_0" arrivalPos="10.00" arrivalSpeed="8.90" duration="147.00" routeLength="1015.10" waitSteps="43" timeLoss="70.97" rerouteNo="0" devices="tripinfo_up_42" vType="typeNS" vaporized=""/>
    <tripinfo id="down_28" depart="29.00" departLane="54o_0" departPos="5.10" departSpeed="0.00" departDelay="6.00" arrival="183.00" arrivalLane="53i_0" arrivalPos="10.00" arrivalSpeed="11.68" duration="154.00" routeLength="1015.10" waitSteps="51" timeLoss="78.15" rerouteNo="0" devices="tripinfo_down_28" vType="typeNS" vaporized=""/>
    <tripinfo id="up_48" depart="43.00" departLane="53o_0" departPos="5.10" departSpeed="0.00" departDelay="0.00" arrival="184.00" arrivalLane="54i_0" arrivalPos="10.00" arrivalSpeed="9.80" duration="141.00" routeLength="1015.10" waitSteps="38" timeLoss="65.02" rerouteNo="0" devices="tripinfo_up_48" vType="typeNS" vaporized=""/>
    <tripinfo id="down_29" depart="34.00" departLane="54o_0" departPos="5.10" departSpeed="0.00" departDelay="10.00" arrival="185.00" arrivalLane="53i_0" arrivalPos="10.00" arrivalSpeed="11.54" duration="151.00" routeLength="1015.10" waitSteps="47" timeLoss="75.07" rerouteNo="0" devices="tripinfo_down_29" vType="typeNS" vaporized=""/>
    <tripinfo id="up_61" depart="53.00" departLane="53o_0" departPos="5.10" departSpeed="0.00" departDelay="0.00" arrival="186.00" arrivalLane="54i_0" arrivalPos="10.00" arrivalSpeed="10.20" duration="133.00" routeLength="1015.10" waitSteps="28" timeLoss="56.98" rerouteNo="0" devices="tripinfo_up_61" vType="typeNS" vaporized=""/>
    <tripinfo id="down_31" depart="39.00" departLane="54o_0" departPos="5.10" departSpeed="0.00" departDelay="14.00" arrival="188.00" arrivalLane="53i_0" arrivalPos="10.00" arrivalSpeed="11.18" duration="149.00" routeLength="1015.10" waitSteps="44" timeLoss="72.45" rerouteNo="0" devices="tripinfo_down_31" vType="typeNS" vaporized=""/>
    <tripinfo id="up_67" depart="58.00" departLane="53o_0" departPos="5.10" departSpeed="0.00" departDelay="1.00" arrival="188.00" arrivalLane="54i_0" arrivalPos="10.00" arrivalSpeed="11.79" duration="130.00" routeLength="1015.10" waitSteps="27" timeLoss="53.91" rerouteNo="0" devices="tripinfo_up_67" vType="typeNS" vaporized=""/>
    <tripinfo id="down_33" depart="44.00" departLane="54o_0" departPos="5.10" departSpeed="0.00" departDelay="18.00" arrival="190.00" arrivalLane="53i_0" arrivalPos="10.00" arrivalSpeed="8.70" duration="146.00" routeLength="1015.10" waitSteps="40" timeLoss="69.88" rerouteNo="0" devices="tripinfo_down_33" vType="typeNS" vaporized=""/>
    <tripinfo id="up_75" depart="63.00" departLane="53o_0" departPos="5.10" departSpeed="0.00" departDelay="1.00" arrival="190.00" arrivalLane="54i_0" arrivalPos="10.00" arrivalSpeed="11.43" duration="127.00" routeLength="1015.10" waitSteps="21" timeLoss="51.01" rerouteNo="0" devices="tripinfo_up_75" vType="typeNS" vaporized=""/>
    <tripinfo id="down_34" depart="49.00" departLane="54o_0" departPos="5.10" departSpeed="0.00" departDelay="21.00" arrival="192.00" arrivalLane="53i_0" arrivalPos="10.00" arrivalSpeed="10.43" duration="143.00" routeLength="1015.10" waitSteps="37" timeLoss="66.77" rerouteNo="0" devices="tripinfo_down_34" vType="typeNS" vaporized=""/>
    <tripinfo id="up_89" depart="73.00" departLane="53o_0" departPos="5.10" departSpeed="0.00" departDelay="0.00" arrival="192.00" arrivalLane="54i_0" arrivalPos="10.00" arrivalSpeed="11.17" duration="119.00" routeLength="1015.10" waitSteps="14" timeLoss="42.97" rerouteNo="0" devices="tripinfo_up_89" vType="typeNS" vaporized=""/>
    <tripinfo id="down_36" depart="55.00" departLane="54o_0" departPos="5.10" departSpeed="0.00" departDelay="26.00" arrival="194.00" arrivalLane="53i_0" arrivalPos="10.00" arrivalSpeed="9.88" duration="139.00" routeLength="1015.10" waitSteps="33" timeLoss="62.77" rerouteNo="0" devices="tripinfo_down_36" vType="typeNS" vaporized=""/>
    <tripinfo id="up_92" depart="78.00" departLane="53o_0" departPos="5.10" departSpeed="0.00" departDelay="3.00" arrival="194.00" arrivalLane="54i_0" arrivalPos="10.00" arrivalSpeed="11.11" duration="116.00" routeLength="1015.10" waitSteps="11" timeLoss="39.96" rerouteNo="0" devices="tripinfo_up_92" vType="typeNS" vaporized=""/>
    <tripinfo id="down_47" depart="61.00" departLane="54o_0" departPos="5.10" departSpeed="0.00" departDelay="18.00" arrival="196.00" arrivalLane="53i_0" arrivalPos="10.00" arrivalSpeed="10.01" duration="135.00" routeLength="1015.10" waitSteps="30" timeLoss="58.89" rerouteNo="0" devices="tripinfo_down_47" vType="typeNS" vaporized=""/>
    <tripinfo id="up_95" depart="83.00" departLane="53o_0" departPos="5.10" departSpeed="0.00" departDelay="6.00" arrival="196.00" arrivalLane="54i_0" arrivalPos="10.00" arrivalSpeed="10.43" duration="113.00" routeLength="1015.10" waitSteps="7" timeLoss="36.92" rerouteNo="0" devices="tripinfo_up_95" vType="typeNS" vaporized=""/>
    <tripinfo id="down_51" depart="66.00" departLane="54o_0" departPos="5.10" departSpeed="0.00" departDelay="21.00" arrival="198.00" arrivalLane="53i_0" arrivalPos="10.00" arrivalSpeed="10.34" duration="132.00" routeLength="1015.10" waitSteps="24" timeLoss="55.87" rerouteNo="0" devices="tripinfo_down_51" vType="typeNS" vaporized=""/>
    <tripinfo id="up_98" depart="88.00" departLane="53o_0" departPos="5.10" departSpeed="0.00" departDelay="7.00" arrival="198.00" arrivalLane="54i_0" arrivalPos="10.00" arrivalSpeed="10.57" duration="110.00" routeLength="1015.10" waitSteps="4" timeLoss="33.90" rerouteNo="0" devices="tripinfo_up_98" vType="typeNS" vaporized=""/>
    <tripinfo id="down_52" depart="71.00" departLane="54o_0" departPos="5.10" departSpeed="0.00" departDelay="25.00" arrival="200.00" arrivalLane="53i_0" arrivalPos="10.00" arrivalSpeed="9.84" duration="129.00" routeLength="1015.10" waitSteps="23" timeLoss="52.91" rerouteNo="0" devices="tripinfo_down_52" vType="typeNS" vaporized=""/>
    <tripinfo id="up_101" depart="93.00" departLane="53o_0" departPos="5.10" departSpeed="0.00" departDelay="10.00" arrival="200.00" arrivalLane="54i_0" arrivalPos="10.00" arrivalSpeed="11.47" duration="107.00" routeLength="1015.10" waitSteps="0" timeLoss="31.11" rerouteNo="0" devices="tripinfo_up_101" vType="typeNS" vaporized=""/>
    <tripinfo id="down_56" depart="77.00" departLane="54o_0" departPos="5.10" departSpeed="0.00" departDelay="28.00" arrival="202.00" arrivalLane="53i_0" arrivalPos="10.00" arrivalSpeed="9.78" duration="125.00" routeLength="1015.10" waitSteps="18" timeLoss="48.89" rerouteNo="0" devices="tripinfo_down_56" vType="typeNS" vaporized=""/>
    <tripinfo id="right_38" depart="79.00" departLane="51o_0" departPos="5.10" departSpeed="0.00" departDelay="47.00" arrival="210.00" arrivalLane="52i_0" arrivalPos="10.00" arrivalSpeed="11.59" duration="131.00" routeLength="1015.10" waitSteps="30" timeLoss="55.18" rerouteNo="0" devices="tripinfo_right_38" vType="typeWE" vaporized=""/>
    <tripinfo id="left_81" depart="80.00" departLane="52o_0" departPos="5.10" departSpeed="0.00" departDelay="13.00" arrival="212.00" arrivalLane="51i_0" arrivalPos="10.00" arrivalSpeed="10.80" duration="132.00" routeLength="1015.10" waitSteps="27" timeLoss="55.97" rerouteNo="0" devices="tripinfo_left_81" vType="typeWE" vaporized=""/>
    <tripinfo id="right_40" depart="85.00" departLane="51o_0" departPos="5.10" departSpeed="0.00" departDelay="51.00" arrival="213.00" arrivalLane="52i_0" arrivalPos="10.00" arrivalSpeed="11.59" duration="128.00" routeLength="1015.10" waitSteps="25" timeLoss="51.51" rerouteNo="0" devices="tripinfo_right_40" vType="typeWE" vaporized=""/>
    <tripinfo id="left_82" depart="85.00" departLane="52o_0" departPos="5.10" departSpeed="0.00" departDelay="17.00" arrival="214.00" arrivalLane="51i_0" arrivalPos="10.00" arrivalSpeed="11.80" duration="129.00" routeLength="1015.10" waitSteps="25" timeLoss="53.00" rerouteNo="0" devices="tripinfo_left_82" vType="typeWE" vaporized=""/>
    <tripinfo id="right_41" depart="90.00" departLane="51o_0" departPos="5.10" departSpeed="0.00" departDelay="55.00" arrival="215.00" arrivalLane="52i_0" arrivalPos="10.00" arrivalSpeed="9.91" duration="125.00" routeLength="1015.10" waitSteps="22" timeLoss="48.98" rerouteNo="0" devices="tripinfo_right_41" vType="typeWE" vaporized=""/>
    <tripinfo id="left_85" depart="90.00" departLane="52o_0" departPos="5.10" departSpeed="0.00" departDelay="20.00" arrival="216.00" arrivalLane="51i_0" arrivalPos="10.00" arrivalSpeed="11.21" duration="126.00" routeLength="1015.10" waitSteps="20" timeLoss="50.04" rerouteNo="0" devices="tripinfo_left_85" vType="typeWE" vaporized=""/>
    <tripinfo id="right_43" depart="95.00" departLane="51o_0" departPos="5.10" departSpeed="0.00" departDelay="59.00" arrival="217.00" arrivalLane="52i_0" arrivalPos="10.00" arrivalSpeed="10.02" duration="122.00" routeLength="1015.10" waitSteps="19" timeLoss="45.86" rerouteNo="0" devices="tripinfo_right_43" vType="typeWE" vaporized=""/>
    <tripinfo id="left_97" depart="95.00" departLane="52o_0" departPos="5.10" departSpeed="0.00" departDelay="14.00" arrival="218.00" arrivalLane="51i_0" arrivalPos="10.00" arrivalSpeed="10.87" duration="123.00" routeLength="1015.10" waitSteps="17" timeLoss="47.04" rerouteNo="0" devices="tripinfo_left_97" vType="typeWE" vaporized=""/>
    <tripinfo id="right_44" depart="100.00" departLane="51o_0" departPos="5.10" departSpeed="0.00" departDelay="61.00" arrival="219.00" arrivalLane="52i_0" arrivalPos="10.00" arrivalSpeed="10.49" duration="119.00" routeLength="1015.10" waitSteps="13" timeLoss="43.05" rerouteNo="0" devices="tripinfo_right_44" vType="typeWE" vaporized=""/>
    <tripinfo id="left_102" depart="100.00" departLane="52o_0" departPos="5.10" departSpeed="0.00" departDelay="16.00" arrival="220.00" arrivalLane="51i_0" arrivalPos="10.00" arrivalSpeed="10.16" duration="120.00" routeLength="1015.10" waitSteps="14" timeLoss="43.95" rerouteNo="0" devices="tripinfo_left_102" vType="typeWE" vaporized=""/>
    <tripinfo id="right_46" depart="105.00" departLane="51o_0" departPos="5.10" departSpeed="0.00" departDelay="62.00" arrival="221.00" arrivalLane="52i_0" arrivalPos="10.00" arrivalSpeed="10.53" duration="116.00" routeLength="1015.10" waitSteps="10" timeLoss="39.95" rerouteNo="0" devices="tripinfo_right_46" vType="typeWE" vaporized=""/>
    <tripinfo id="left_107" depart="105.00" departLane="52o_0" departPos="5.10" departSpeed="0.00" departDelay="16.00" arrival="222.00" arrivalLane="51i_0" arrivalPos="10.00" arrivalSpeed="10.96" duration="117.00" routeLength="1015.10" waitSteps="12" timeLoss="40.91" rerouteNo="0" devices="tripinfo_left_107" vType="typeWE" vaporized=""/>
    <tripinfo id="right_49" depart="110.00" departLane="51o_0" departPos="5.10" departSpeed="0.00" departDelay="66.00" arrival="223.00" arrivalLane="52i_0" arrivalPos="10.00" arrivalSpeed="10.25" duration="113.00" routeLength="1015.10" waitSteps="7" timeLoss="36.97" rerouteNo="0" devices="tripinfo_right_49" vType="typeWE" vaporized=""/>
    <tripinfo id="left_111" depart="110.00" departLane="52o_0" departPos="5.10" departSpeed="0.00" departDelay="19.00" arrival="224.00" arrivalLane="51i_0" arrivalPos="10.00" arrivalSpeed="10.19" duration="114.00" routeLength="1015.10" waitSteps="9" timeLoss="37.87" rerouteNo="0" devices="tripinfo_left_111" vType="typeWE" vaporized=""/>
    <tripinfo id="right_50" depart="115.00" departLane="51o_0" departPos="5.10" departSpeed="0.00" departDelay="70.00" arrival="225.00" arrivalLane="52i_0" arrivalPos="10.00" arrivalSpeed="10.36" duration="110.00" routeLength="1015.10" waitSteps="3" timeLoss="33.86" rerouteNo="0" devices="tripinfo_right_50" vType="typeWE" vaporized=""/>
    <tripinfo id="left_122" depart="116.00" departLane="52o_0" departPos="5.10" departSpeed="0.00" departDelay="16.00" arrival="226.00" arrivalLane="51i_0" arrivalPos="10.00" arrivalSpeed="9.78" duration="110.00" routeLength="1015.10" waitSteps="3" timeLoss="33.83" rerouteNo="0" devices="tripinfo_left_122" vType="typeWE" vaporized=""/>
    <tripinfo id="right_53" depart="121.00" departLane="51o_0" departPos="5.10" departSpeed="0.00" departDelay="74.00" arrival="227.00" arrivalLane="52i_0" arrivalPos="10.00" arrivalSpeed="10.15" duration="106.00" routeLength="1015.10" waitSteps="0" timeLoss="29.83" rerouteNo="0" devices="tripinfo_right_53" vType="typeWE" vaporized=""/>
    <tripinfo id="left_127" depart="122.00" departLane="52o_0" departPos="5.10" departSpeed="0.00" departDelay="17.00" arrival="228.00" arrivalLane="51i_0" arrivalPos="10.00" arrivalSpeed="9.63" duration="106.00" routeLength="1015.10" waitSteps="0" timeLoss="29.84" rerouteNo="0" devices="tripinfo_left_127" vType="typeWE" vaporized=""/>
    <tripinfo id="right_55" depart="126.00" departLane="51o_0" departPos="5.10" departSpeed="0.00" departDelay="77.00" arrival="229.00" arrivalLane="52i_0" arrivalPos="10.00" arrivalSpeed="9.11" duration="103.00" routeLength="1015.10" waitSteps="0" timeLoss="26.89" rerouteNo="0" devices="tripinfo_right_55" vType="typeWE" vaporized=""/>
    <tripinfo id="left_128" depart="128.00" departLane="52o_0" departPos="5.10" departSpeed="0.00" departDelay="22.00" arrival="230.00" arrivalLane="51i_0" arrivalPos="10.00" arrivalSpeed="9.87" duration="102.00" routeLength="1015.10" waitSteps="0" timeLoss="25.98" rerouteNo="0" devices="tripinfo_left_128" vType="typeWE" vaporized=""/>
    <tripinfo id="right_57" depart="132.00" departLane="51o_0" departPos="5.10" departSpeed="0.00" departDelay="82.00" arrival="231.00" arrivalLane="52i_0" arrivalPos="10.00" arrivalSpeed="9.59" duration="99.00" routeLength="1015.10" waitSteps="0" timeLoss="22.85" rerouteNo="0" devices="tripinfo_right_57" vType="typeWE" vaporized=""/>
    <tripinfo id="left_130" depart="134.00" departLane="52o_0" departPos="5.10" departSpeed="0.00" departDelay="27.00" arrival="232.00" arrivalLane="51i_0" arrivalPos="10.00" arrivalSpeed="9.13" duration="98.00" routeLength="1015.10" waitSteps="0" timeLoss="21.80" rerouteNo="0" devices="tripinfo_left_130" vType="typeWE" vaporized=""/>
    <tripinfo id="right_58" depart="137.00" departLane="51o_0" departPos="5.10" departSpeed="0.00" departDelay="86.00" arrival="233.00" arrivalLane="52i_0" arrivalPos="10.00" arrivalSpeed="9.16" duration="96.00" routeLength="1015.10" waitSteps="0" timeLoss="19.97" rerouteNo="0" devices="tripinfo_right_58" vType="typeWE" vaporized=""/>
    <tripinfo id="down_59" depart="82.00" departLane="54o_0" departPos="5.10" departSpeed="0.00" departDelay="31.00" arrival="241.00" arrivalLane="53i_0" arrivalPos="10.00" arrivalSpeed="11.47" duration="159.00" routeLength="1015.10" waitSteps="43" timeLoss="82.62" rerouteNo="0" devices="tripinfo_down_59" vType="typeNS" vaporized=""/>
    <tripinfo id="up_105" depart="100.00" departLane="53o_0" departPos="5.10" departSpeed="0.00" departDelay="14.00" arrival="242.00" arrivalLane="54i_0" arrivalPos="10.00" arrivalSpeed="11.87" duration="142.00" routeLength="1015.10" waitSteps="30" timeLoss="65.73" rerouteNo="0" devices="tripinfo_up_105" vType="typeNS" vaporized=""/>
    <tripinfo id="down_63" depart="87.00" departLane="54o_0" departPos="5.10" departSpeed="0.00" departDelay="33.00" arrival="243.00" arrivalLane="53i_0" arrivalPos="10.00" arrivalSpeed="9.65" duration="156.00" routeLength="1015.10" waitSteps="39" timeLoss="80.01" rerouteNo="0" devices="tripinfo_down_63" vType="typeNS" vaporized=""/>
    <tripinfo id="up_112" depart="106.00" departLane="53o_0" departPos="5.10" departSpeed="0.00" departDelay="15.00" arrival="244.00" arrivalLane="54i_0" arrivalPos="10.00" arrivalSpeed="10.04" duration="138.00" routeLength="1015.10" waitSteps="29" timeLoss="61.87" rerouteNo="0" devices="tripinfo_up_112" vType="typeNS" vaporized=""/>