<?xml version="1.0" encoding="UTF-8"?>

<!-- generated on Saturday 21 January 2017 12:21:53 PM IST by SUMO gui Version 0.28.0
<?xml version="1.0" encoding="UTF-8"?>

<configuration xmlns:xsi="http://www.w3.org/2001/XMLSchema-instance" xsi:noNamespaceSchemaLocation="http://sumo.dlr.de/xsd/sumo-gui.exeConfiguration.xsd">

    <input>
        <net-file value="data/cross.net.xml"/>
        <route-files value="data/cross.rou.xml"/>
        <additional-files value="data/cross.det.xml"/>
    </input>

    <output>
        <tripinfo-output value="tripinfo.xml"/>
    </output>

    <time>
        <begin value="0"/>
    </time>

    <report>
        <verbose value="true"/>
        <no-step-log value="true"/>
    </report>

    <traci_server>
        <remote-port value="46973"/>
    </traci_server>

</configuration>
-->

<detector xmlns:xsi="http://www.w3.org/2001/XMLSchema-instance" xsi:noNamespaceSchemaLocation="http://sumo.dlr.de/xsd/det_e1_file.xsd">
    <interval begin="0.00" end="30.00" id="0" nVehContrib="0" flow="0.00" occupancy="0.00" speed="-1.00" length="-1.00" nVehEntered="0"/>
    <interval begin="0.00" end="30.00" id="1" nVehContrib="0" flow="0.00" occupancy="0.00" speed="-1.00" length="-1.00" nVehEntered="0"/>
    <interval begin="0.00" end="30.00" id="2" nVehContrib="0" flow="0.00" occupancy="0.00" speed="-1.00" length="-1.00" nVehEntered="0"/>
    <interval begin="0.00" end="30.00" id="3" nVehContrib="0" flow="0.00" occupancy="0.00" speed="-1.00" length="-1.00" nVehEntered="0"/>
    <interval begin="0.00" end="30.00" id="4" nVehContrib="0" flow="0.00" occupancy="0.00" speed="-1.00" length="-1.00" nVehEntered="0"/>
    <interval begin="0.00" end="30.00" id="5" nVehContrib="0" flow="0.00" occupancy="0.00" speed="-1.00" length="-1.00" nVehEntered="0"/>
    <interval begin="0.00" end="30.00" id="6" nVehContrib="0" flow="0.00" occupancy="0.00" speed="-1.00" length="-1.00" nVehEntered="0"/>
    <interval begin="0.00" end="30.00" id="7" nVehContrib="0" flow="0.00" occupancy="0.00" speed="-1.00" length="-1.00" nVehEntered="0"/>
    <interval begin="30.00" end="60.00" id="0" nVehContrib="2" flow="240.00" occupancy="2.03" speed="16.43" length="5.00" nVehEntered="2"/>
    <interval begin="30.00" end="60.00" id="1" nVehContrib="0" flow="0.00" occupancy="39.90" speed="-1.00" length="-1.00" nVehEntered="1"/>
    <interval begin="30.00" end="60.00" id="2" nVehContrib="2" flow="240.00" occupancy="2.03" speed="16.40" length="5.00" nVehEntered="2"/>
    <interval begin="30.00" end="60.00" id="3" nVehContrib="1" flow="120.00" occupancy="1.28" speed="13.04" length="5.00" nVehEntered="1"/>
    <interval begin="30.00" end="60.00" id="4" nVehContrib="3" flow="360.00" occupancy="3.56" speed="16.56" length="5.00" nVehEntered="4"/>
    <interval begin="30.00" end="60.00" id="5" nVehContrib="0" flow="0.00" occupancy="50.38" speed="-1.00" length="-1.00" nVehEntered="1"/>
    <interval begin="30.00" end="60.00" id="6" nVehContrib="0" flow="0.00" occupancy="0.27" speed="-1.00" length="-1.00" nVehEntered="1"/>
    <interval begin="30.00" end="60.00" id="7" nVehContrib="0" flow="0.00" occupancy="0.00" speed="-1.00" length="-1.00" nVehEntered="0"/>
    <interval begin="60.00" end="90.00" id="0" nVehContrib="6" flow="720.00" occupancy="6.04" speed="16.56" length="5.00" nVehEntered="6"/>
    <interval begin="60.00" end="90.00" id="1" nVehContrib="2" flow="240.00" occupancy="77.22" speed="0.33" length="5.00" nVehEntered="2"/>
    <interval begin="60.00" end="90.00" id="2" nVehContrib="1" flow="120.00" occupancy="1.01" speed="16.44" length="5.00" nVehEntered="1"/>
    <interval begin="60.00" end="90.00" id="3" nVehContrib="2" flow="240.00" occupancy="2.54" speed="13.39" length="5.00" nVehEntered="2"/>
    <interval begin="60.00" end="90.00" id="4" nVehContrib="1" flow="120.00" occupancy="0.47" speed="16.47" length="5.00" nVehEntered="0"/>
    <interval begin="60.00" end="90.00" id="5" nVehContrib="2" flow="240.00" occupancy="78.94" speed="0.31" length="5.00" nVehEntered="2"/>
    <interval begin="60.00" end="90.00" id="6" nVehContrib="2" flow="240.00" occupancy="1.76" speed="16.46" length="5.00" nVehEntered="1"/>
    <interval begin="60.00" end="90.00" id="7" nVehContrib="1" flow="120.00" occupancy="68.27" speed="0.54" length="5.00" nVehEntered="2"/>
    <interval begin="90.00" end="120.00" id="0" nVehContrib="4" flow="480.00" occupancy="4.04" speed="16.51" length="5.00" nVehEntered="4"/>
    <interval begin="90.00" end="120.00" id="1" nVehContrib="2" flow="240.00" occupancy="72.82" speed="0.41" length="5.00" nVehEntered="1"/>
    <interval begin="90.00" end="120.00" id="2" nVehContrib="1" flow="120.00" occupancy="1.01" speed="16.50" length="5.00" nVehEntered="1"/>
    <interval begin="90.00" end="120.00" id="3" nVehContrib="0" flow="0.00" occupancy="76.11" speed="-1.00" length="-1.00" nVehEntered="1"/>
    <interval begin="90.00" end="120.00" id="4" nVehContrib="2" flow="240.00" occupancy="2.00" speed="16.63" length="5.00" nVehEntered="2"/>
    <interval begin="90.00" end="120.00" id="5" nVehContrib="1" flow="120.00" occupancy="89.55" speed="0.41" length="5.00" nVehEntered="1"/>
    <interval begin="90.00" end="120.00" id="6" nVehContrib="3" flow="360.00" occupancy="3.05" speed="16.41" length="5.00" nVehEntered="3"/>
    <interval begin="90.00" end="120.00" id="7" nVehContrib="1" flow="120.00" occupancy="89.64" speed="0.17" length="5.00" nVehEntered="1"/>
    <interval begin="120.00" end="150.00" id="0" nVehContrib="1" flow="120.00" occupancy="1.05" speed="15.81" length="5.00" nVehEntered="1"/>
    <interval begin="120.00" end="150.00" id="1" nVehContrib="1" flow="120.00" occupancy="54.81" speed="0.30" length="5.00" nVehEntered="1"/>
    <interval begin="120.00" end="150.00" id="2" nVehContrib="3" flow="360.00" occupancy="3.02" speed="16.54" length="5.00" nVehEntered="3"/>
    <interval begin="120.00" end="150.00" id="3" nVehContrib="2" flow="240.00" occupancy="15.86" speed="4.15" length="5.00" nVehEntered="2"/>
    <interval begin="120.00" end="150.00" id="4" nVehContrib="0" flow="0.00" occupancy="0.00" speed="-1.00" length="-1.00" nVehEntered="0"/>
    <interval begin="120.00" end="150.00" id="5" nVehContrib="2" flow="240.00" occupancy="83.08" speed="0.25" length="5.00" nVehEntered="1"/>
    <interval begin="120.00" end="150.00" id="6" nVehContrib="2" flow="240.00" occupancy="2.00" speed="16.64" length="5.00" nVehEntered="2"/>
    <interval begin="120.00" end="150.00" id="7" nVehContrib="1" flow="120.00" occupancy="89.66" speed="0.18" length="5.00" nVehEntered="1"/>
    <interval begin="150.00" end="180.00" id="0" nVehContrib="4" flow="480.00" occupancy="4.34" speed="15.45" length="5.00" nVehEntered="4"/>
    <interval begin="150.00" end="180.00" id="1" nVehContrib="1" flow="120.00" occupancy="86.38" speed="0.29" length="5.00" nVehEntered="2"/>
    <interval begin="150.00" end="180.00" id="2" nVehContrib="3" flow="360.00" occupancy="3.01" speed="16.63" length="5.00" nVehEntered="3"/>
    <interval begin="150.00" end="180.00" id="3" nVehContrib="2" flow="240.00" occupancy="79.30" speed="0.42" length="5.00" nVehEntered="2"/>
    <interval begin="150.00" end="180.00" id="4" nVehContrib="3" flow="360.00" occupancy="3.02" speed="16.57" length="5.00" nVehEntered="3"/>
    <interval begin="150.00" end="180.00" id="5" nVehContrib="1" flow="120.00" occupancy="86.63" speed="0.29" length="5.00" nVehEntered="2"/>
    <interval begin="150.00" end="180.00" id="6" nVehContrib="1" flow="120.00" occupancy="1.00" speed="16.64" length="5.00" nVehEntered="1"/>
    <interval begin="150.00" end="180.00" id="7" nVehContrib="2" flow="240.00" occupancy="80.86" speed="0.31" length="5.00" nVehEntered="1"/>
    <interval begin="180.00" end="210.00" id="0" nVehContrib="3" flow="360.00" occupancy="6.78" speed="11.22" length="5.00" nVehEntered="4"/>
    <interval begin="180.00" end="210.00" id="1" nVehContrib="2" flow="240.00" occupancy="78.91" speed="0.32" length="5.00" nVehEntered="2"/>
    <interval begin="180.00" end="210.00" id="2" nVehContrib="2" flow="240.00" occupancy="2.04" speed="16.35" length="5.00" nVehEntered="2"/>
    <interval begin="180.00" end="210.00" id="3" nVehContrib="1" flow="120.00" occupancy="89.83" speed="0.29" length="5.00" nVehEntered="1"/>
    <interval begin="180.00" end="210.00" id="4" nVehContrib="2" flow="240.00" occupancy="2.01" speed="16.60" length="5.00" nVehEntered="2"/>
    <interval begin="180.00" end="210.00" id="5" nVehContrib="2" flow="240.00" occupancy="79.76" speed="0.32" length="5.00" nVehEntered="2"/>
    <interval begin="180.00" end="210.00" id="6" nVehContrib="2" flow="240.00" occupancy="2.03" speed="16.45" length="5.00" nVehEntered="2"/>
    <interval begin="180.00" end="210.00" id="7" nVehContrib="1" flow="120.00" occupancy="90.43" speed="0.29" length="5.00" nVehEntered="2"/>
    <interval begin="210.00" end="240.00" id="0" nVehContrib="2" flow="240.00" occupancy="13.17" speed="3.65" length="5.00" nVehEntered="1"/>
    <interval begin="210.00" end="240.00" id="1" nVehContrib="1" flow="120.00" occupancy="87.52" speed="0.18" length="5.00" nVehEntered="1"/>
    <interval begin="210.00" end="240.00" id="2" nVehContrib="2" flow="240.00" occupancy="2.03" speed="16.39" length="5.00" nVehEntered="2"/>
    <interval begin="210.00" end="240.00" id="3" nVehContrib="1" flow="120.00" occupancy="88.04" speed="0.18" length="5.00" nVehEntered="1"/>
    <interval begin="210.00" end="240.00" id="4" nVehContrib="0" flow="0.00" occupancy="0.00" speed="-1.00" length="-1.00" nVehEntered="0"/>
    <interval begin="210.00" end="240.00" id="5" nVehContrib="1" flow="120.00" occupancy="88.65" speed="0.18" length="5.00" nVehEntered="0"/>
    <interval begin="210.00" end="240.00" id="6" nVehContrib="0" flow="0.00" occupancy="0.00" speed="-1.00" length="-1.00" nVehEntered="0"/>
    <interval begin="210.00" end="240.00" id="7" nVehContrib="1" flow="120.00" occupancy="87.88" speed="0.18" length="5.00" nVehEntered="1"/>
    <interval begin="240.00" end="270.00" id="0" nVehContrib="1" flow="120.00" occupancy="17.45" speed="0.95" length="5.00" nVehEntered="1"/>
    <interval begin="240.00" end="270.00" id="1" nVehContrib="0" flow="0.00" occupancy="100.00" speed="-1.00" length="-1.00" nVehEntered="0"/>
    <interval begin="240.00" end="270.00" id="2" nVehContrib="1" flow="120.00" occupancy="1.02" speed="16.39" length="5.00" nVehEntered="1"/>
    <interval begin="240.00" end="270.00" id="3" nVehContrib="1" flow="120.00" occupancy="89.74" speed="0.29" length="5.00" nVehEntered="1"/>
    <interval begin="240.00" end="270.00" id="4" nVehContrib="1" flow="120.00" occupancy="1.01" speed="16.48" length="5.00" nVehEntered="1"/>
    <interval begin="240.00" end="270.00" id="5" nVehContrib="0" flow="0.00" occupancy="99.25" speed="-1.00" length="-1.00" nVehEntered="1"/>
    <interval begin="240.00" end="270.00" id="6" nVehContrib="2" flow="240.00" occupancy="2.02" speed="16.49" length="5.00" nVehEntered="2"/>
    <interval begin="240.00" end="270.00" id="7" nVehContrib="1" flow="120.00" occupancy="89.79" speed="0.29" length="5.00" nVehEntered="1"/>
    <interval begin="270.00" end="300.00" id="0" nVehContrib="0" flow="0.00" occupancy="32.01" speed="-1.00" length="-1.00" nVehEntered="1"/>
    <interval begin="270.00" end="300.00" id="1" nVehContrib="1" flow="120.00" occupancy="42.02" speed="0.16" length="5.00" nVehEntered="1"/>
    <interval begin="270.00" end="300.00" id="2" nVehContrib="3" flow="360.00" occupancy="3.04" speed="16.43" length="5.00" nVehEntered="3"/>
    <interval begin="270.00" end="300.00" id="3" nVehContrib="2" flow="240.00" occupancy="78.51" speed="0.30" length="5.00" nVehEntered="2"/>
    <interval begin="270.00" end="300.00" id="4" nVehContrib="2" flow="240.00" occupancy="2.02" speed="16.49" length="5.00" nVehEntered="2"/>
    <interval begin="270.00" end="300.00" id="5" nVehContrib="2" flow="240.00" occupancy="79.34" speed="0.30" length="5.00" nVehEntered="2"/>
    <interval begin="270.00" end="300.00" id="6" nVehContrib="3" flow="360.00" occupancy="3.06" speed="16.35" length="5.00" nVehEntered="3"/>
    <interval begin="270.00" end="300.00" id="7" nVehContrib="2" flow="240.00" occupancy="76.65" speed="0.30" length="5.00" nVehEntered="2"/>
    <interval begin="300.00" end="330.00" id="0" nVehContrib="1" flow="120.00" occupancy="21.28" speed="0.31" length="5.00" nVehEntered="0"/>
    <interval begin="300.00" end="330.00" id="1" nVehContrib="1" flow="120.00" occupancy="89.65" speed="0.19" length="5.00" nVehEntered="1"/>
    <interval begin="300.00" end="330.00" id="2" nVehContrib="3" flow="360.00" occupancy="3.04" speed="16.42" length="5.00" nVehEntered="3"/>
    <interval begin="300.00" end="330.00" id="3" nVehContrib="1" flow="120.00" occupancy="89.70" speed="0.20" length="5.00" nVehEntered="1"/>
    <interval begin="300.00" end="330.00" id="4" nVehContrib="3" flow="360.00" occupancy="3.30" speed="16.44" length="5.00" nVehEntered="4"/>
    <interval begin="300.00" end="330.00" id="5" nVehContrib="1" flow="120.00" occupancy="43.24" speed="0.38" length="5.00" nVehEntered="1"/>
    <interval begin="300.00" end="330.00" id="6" nVehContrib="2" flow="240.00" occupancy="2.03" speed="16.40" length="5.00" nVehEntered="2"/>
    <interval begin="300.00" end="330.00" id="7" nVehContrib="1" flow="120.00" occupancy="86.70" speed="0.20" length="5.00" nVehEntered="1"/>
    <interval begin="330.00" end="360.00" id="0" nVehContrib="2" flow="240.00" occupancy="31.78" speed="1.22" length="5.00" nVehEntered="3"/>
    <interval begin="330.00" end="360.00" id="1" nVehContrib="2" flow="240.00" occupancy="16.87" speed="1.50" length="5.00" nVehEntered="2"/>
    <interval begin="330.00" end="360.00" id="2" nVehContrib="0" flow="0.00" occupancy="0.00" speed="-1.00" length="-1.00" nVehEntered="0"/>
    <interval begin="330.00" end="360.00" id="3" nVehContrib="1" flow="120.00" occupancy="90.45" speed="0.28" length="5.00" nVehEntered="1"/>
    <interval begin="330.00" end="360.00" id="4" nVehContrib="3" flow="360.00" occupancy="2.78" speed="16.48" length="5.00" nVehEntered="2"/>
    <interval begin="330.00" end="360.00" id="5" nVehContrib="2" flow="240.00" occupancy="78.96" speed="0.33" length="5.00" nVehEntered="2"/>
    <interval begin="330.00" end="360.00" id="6" nVehContrib="3" flow="360.00" occupancy="3.05" speed="16.38" length="5.00" nVehEntered="3"/>
    <interval begin="330.00" end="360.00" id="7" nVehContrib="1" flow="120.00" occupancy="89.88" speed="0.29" length="5.00" nVehEntered="1"/>
    <interval begin="360.00" end="390.00" id="0" nVehContrib="1" flow="120.00" occupancy="50.64" speed="0.31" length="5.00" nVehEntered="0"/>
    <interval begin="360.00" end="390.00" id="1" nVehContrib="1" flow="120.00" occupancy="87.44" speed="0.18" length="5.00" nVehEntered="1"/>
    <interval begin="360.00" end="390.00" id="2" nVehContrib="2" flow="240.00" occupancy="2.02" speed="16.52" length="5.00" nVehEntered="2"/>
    <interval begin="360.00" end="390.00" id="3" nVehContrib="1" flow="120.00" occupancy="44.51" speed="0.32" length="5.00" nVehEntered="1"/>
    <interval begin="360.00" end="390.00" id="4" nVehContrib="2" flow="240.00" occupancy="2.03" speed="16.41" length="5.00" nVehEntered="2"/>
    <interval begin="360.00" end="390.00" id="5" nVehContrib="1" flow="120.00" occupancy="87.03" speed="0.18" length="5.00" nVehEntered="1"/>
    <interval begin="360.00" end="390.00" id="6" nVehContrib="2" flow="240.00" occupancy="2.04" speed="16.36" length="5.00" nVehEntered="2"/>
    <interval begin="360.00" end="390.00" id="7" nVehContrib="2" flow="240.00" occupancy="78.83" speed="0.38" length="5.00" nVehEntered="2"/>
    <interval begin="390.00" end="420.00" id="0" nVehContrib="1" flow="120.00" occupancy="22.78" speed="0.73" length="5.00" nVehEntered="1"/>
    <interval begin="390.00" end="420.00" id="1" nVehContrib="1" flow="120.00" occupancy="95.25" speed="0.17" length="5.00" nVehEntered="0"/>
    <interval begin="390.00" end="420.00" id="2" nVehContrib="1" flow="120.00" occupancy="1.01" speed="16.51" length="5.00" nVehEntered="1"/>
    <interval begin="390.00" end="420.00" id="3" nVehContrib="1" flow="120.00" occupancy="89.50" speed="0.16" length="5.00" nVehEntered="1"/>
    <interval begin="390.00" end="420.00" id="4" nVehContrib="4" flow="480.00" occupancy="4.19" speed="15.93" length="5.00" nVehEntered="4"/>
    <interval begin="390.00" end="420.00" id="5" nVehContrib="1" flow="120.00" occupancy="93.65" speed="0.17" length="5.00" nVehEntered="0"/>
    <interval begin="390.00" end="420.00" id="6" nVehContrib="4" flow="480.00" occupancy="4.42" speed="15.22" length="5.00" nVehEntered="4"/>
    <interval begin="390.00" end="420.00" id="7" nVehContrib="1" flow="120.00" occupancy="89.06" speed="0.16" length="5.00" nVehEntered="1"/>
    <interval begin="420.00" end="450.00" id="0" nVehContrib="1" flow="120.00" occupancy="14.58" speed="1.14" length="5.00" nVehEntered="1"/>
    <interval begin="420.00" end="450.00" id="1" nVehContrib="1" flow="120.00" occupancy="47.17" speed="0.35" length="5.00" nVehEntered="1"/>
    <interval begin="420.00" end="450.00" id="2" nVehContrib="1" flow="120.00" occupancy="1.01" speed="16.49" length="5.00" nVehEntered="1"/>
    <interval begin="420.00" end="450.00" id="3" nVehContrib="1" flow="120.00" occupancy="87.58" speed="0.18" length="5.00" nVehEntered="1"/>
    <interval begin="420.00" end="450.00" id="4" nVehContrib="1" flow="120.00" occupancy="1.14" speed="14.68" length="5.00" nVehEntered="1"/>
    <interval begin="420.00" end="450.00" id="5" nVehContrib="1" flow="120.00" occupancy="91.71" speed="0.18" length="5.00" nVehEntered="1"/>
    <interval begin="420.00" end="450.00" id="6" nVehContrib="1" flow="120.00" occupancy="1.17" speed="14.24" length="5.00" nVehEntered="1"/>
    <interval begin="420.00" end="450.00" id="7" nVehContrib="1" flow="120.00" occupancy="88.82" speed="0.17" length="5.00" nVehEntered="1"/>
    <interval begin="450.00" end="480.00" id="0" nVehContrib="1" flow="120.00" occupancy="25.35" speed="0.66" length="5.00" nVehEntered="1"/>
    <interval begin="450.00" end="480.00" id="1" nVehContrib="1" flow="120.00" occupancy="41.20" speed="0.40" length="5.00" nVehEntered="1"/>
    <interval begin="450.00" end="480.00" id="2" nVehContrib="5" flow="600.00" occupancy="6.24" speed="13.94" length="5.00" nVehEntered="5"/>
    <interval begin="450.00" end="480.00" id="3" nVehContrib="1" flow="120.00" occupancy="88.80" speed="0.20" length="5.00" nVehEntered="1"/>
    <interval begin="450.00" end="480.00" id="4" nVehContrib="2" flow="240.00" occupancy="2.63" speed="12.81" length="5.00" nVehEntered="2"/>
    <interval begin="450.00" end="480.00" id="5" nVehContrib="1" flow="120.00" occupancy="84.35" speed="0.20" length="5.00" nVehEntered="1"/>
    <interval begin="450.00" end="480.00" id="6" nVehContrib="1" flow="120.00" occupancy="1.32" speed="12.66" length="5.00" nVehEntered="1"/>
    <interval begin="450.00" end="480.00" id="7" nVehContrib="1" flow="120.00" occupancy="87.50" speed="0.20" length="5.00" nVehEntered="1"/>
    <interval begin="480.00" end="510.00" id="0" nVehContrib="1" flow="120.00" occupancy="37.18" speed="0.45" length="5.00" nVehEntered="1"/>
    <interval begin="480.00" end="510.00" id="1" nVehContrib="1" flow="120.00" occupancy="85.20" speed="0.42" length="5.00" nVehEntered="2"/>
    <interval begin="480.00" end="510.00" id="2" nVehContrib="1" flow="120.00" occupancy="1.91" speed="8.74" length="5.00" nVehEntered="1"/>
    <interval begin="480.00" end="510.00" id="3" nVehContrib="1" flow="120.00" occupancy="88.90" speed="0.20" length="5.00" nVehEntered="1"/>
    <interval begin="480.00" end="510.00" id="4" nVehContrib="0" flow="0.00" occupancy="0.00" speed="-1.00" length="-1.00" nVehEntered="0"/>
    <interval begin="480.00" end="510.00" id="5" nVehContrib="1" flow="120.00" occupancy="84.39" speed="0.44" length="5.00" nVehEntered="2"/>
    <interval begin="480.00" end="510.00" id="6" nVehContrib="2" flow="240.00" occupancy="2.76" speed="12.18" length="5.00" nVehEntered="2"/>
    <interval begin="480.00" end="510.00" id="7" nVehContrib="1" flow="120.00" occupancy="87.27" speed="0.20" length="5.00" nVehEntered="1"/>
    <interval begin="510.00" end="540.00" id="0" nVehContrib="1" flow="120.00" occupancy="15.05" speed="1.31" length="5.00" nVehEntered="2"/>
    <interval begin="510.00" end="540.00" id="1" nVehContrib="1" flow="120.00" occupancy="89.09" speed="0.19" length="5.00" nVehEntered="1"/>
    <interval begin="510.00" end="540.00" id="2" nVehContrib="2" flow="240.00" occupancy="6.30" speed="5.36" length="5.00" nVehEntered="2"/>
    <interval begin="510.00" end="540.00" id="3" nVehContrib="1" flow="120.00" occupancy="87.78" speed="0.18" length="5.00" nVehEntered="1"/>
    <interval begin="510.00" end="540.00" id="4" nVehContrib="2" flow="240.00" occupancy="2.38" speed="14.35" length="5.00" nVehEntered="2"/>
    <interval begin="510.00" end="540.00" id="5" nVehContrib="1" flow="120.00" occupancy="89.35" speed="0.19" length="5.00" nVehEntered="1"/>
    <interval begin="510.00" end="540.00" id="6" nVehContrib="2" flow="240.00" occupancy="6.38" speed="5.33" length="5.00" nVehEntered="2"/>
    <interval begin="510.00" end="540.00" id="7" nVehContrib="1" flow="120.00" occupancy="87.77" speed="0.19" length="5.00" nVehEntered="1"/>
    <interval begin="540.00" end="570.00" id="0" nVehContrib="1" flow="120.00" occupancy="16.50" speed="1.14" length="5.00" nVehEntered="1"/>
    <interval begin="540.00" end="570.00" id="1" nVehContrib="1" flow="120.00" occupancy="88.19" speed="0.19" length="5.00" nVehEntered="1"/>
    <interval begin="540.00" end="570.00" id="2" nVehContrib="1" flow="120.00" occupancy="1.78" speed="9.34" length="5.00" nVehEntered="1"/>
    <interval begin="540.00" end="570.00" id="3" nVehContrib="2" flow="240.00" occupancy="80.31" speed="0.40" length="5.00" nVehEntered="2"/>
    <interval begin="540.00" end="570.00" id="4" nVehContrib="0" flow="0.00" occupancy="0.00" speed="-1.00" length="-1.00" nVehEntered="0"/>
    <interval begin="540.00" end="570.00" id="5" nVehContrib="1" flow="120.00" occupancy="88.24" speed="0.19" length="5.00" nVehEntered="1"/>
    <interval begin="540.00" end="570.00" id="6" nVehContrib="2" flow="240.00" occupancy="27.26" speed="1.24" length="5.00" nVehEntered="2"/>
    <interval begin="540.00" end="570.00" id="7" nVehContrib="2" flow="240.00" occupancy="81.04" speed="0.40" length="5.00" nVehEntered="2"/>
    <interval begin="570.00" end="600.00" id="0" nVehContrib="2" flow="240.00" occupancy="23.86" speed="1.19" length="5.00" nVehEntered="1"/>
    <interval begin="570.00" end="600.00" id="1" nVehContrib="2" flow="240.00" occupancy="80.52" speed="0.37" length="5.00" nVehEntered="2"/>
    <interval begin="570.00" end="600.00" id="2" nVehContrib="1" flow="120.00" occupancy="2.08" speed="8.01" length="5.00" nVehEntered="1"/>
    <interval begin="570.00" end="600.00" id="3" nVehContrib="1" flow="120.00" occupancy="89.22" speed="0.18" length="5.00" nVehEntered="1"/>
    <interval begin="570.00" end="600.00" id="4" nVehContrib="3" flow="360.00" occupancy="3.64" speed="13.85" length="5.00" nVehEntered="3"/>
    <interval begin="570.00" end="600.00" id="5" nVehContrib="2" flow="240.00" occupancy="80.80" speed="0.37" length="5.00" nVehEntered="2"/>
    <interval begin="570.00" end="600.00" id="6" nVehContrib="1" flow="120.00" occupancy="13.69" speed="1.22" length="5.00" nVehEntered="1"/>
    <interval begin="570.00" end="600.00" id="7" nVehContrib="1" flow="120.00" occupancy="89.10" speed="0.18" length="5.00" nVehEntered="1"/>
    <interval begin="600.00" end="630.00" id="0" nVehContrib="1" flow="120.00" occupancy="14.35" speed="1.16" length="5.00" nVehEntered="1"/>
    <interval begin="600.00" end="630.00" id="1" nVehContrib="1" flow="120.00" occupancy="89.55" speed="0.19" length="5.00" nVehEntered="1"/>
    <interval begin="600.00" end="630.00" id="2" nVehContrib="1" flow="120.00" occupancy="1.74" speed="9.59" length="5.00" nVehEntered="1"/>
    <interval begin="600.00" end="630.00" id="3" nVehContrib="2" flow="240.00" occupancy="81.48" speed="0.42" length="5.00" nVehEntered="2"/>
    <interval begin="600.00" end="630.00" id="4" nVehContrib="0" flow="0.00" occupancy="0.00" speed="-1.00" length="-1.00" nVehEntered="0"/>
    <interval begin="600.00" end="630.00" id="5" nVehContrib="1" flow="120.00" occupancy="89.32" speed="0.19" length="5.00" nVehEntered="1"/>
    <interval begin="600.00" end="630.00" id="6" nVehContrib="2" flow="240.00" occupancy="29.84" speed="1.13" length="5.00" nVehEntered="2"/>
    <interval begin="600.00" end="630.00" id="7" nVehContrib="2" flow="240.00" occupancy="81.41" speed="0.43" length="5.00" nVehEntered="2"/>
    <interval begin="630.00" end="660.00" id="0" nVehContrib="2" flow="240.00" occupancy="29.61" speed="1.13" length="5.00" nVehEntered="2"/>
    <interval begin="630.00" end="660.00" id="1" nVehContrib="1" flow="120.00" occupancy="90.30" speed="0.34" length="5.00" nVehEntered="1"/>
    <interval begin="630.00" end="660.00" id="2" nVehContrib="1" flow="120.00" occupancy="1.63" speed="10.24" length="5.00" nVehEntered="1"/>
    <interval begin="630.00" end="660.00" id="3" nVehContrib="2" flow="240.00" occupancy="80.16" speed="0.36" length="5.00" nVehEntered="1"/>
    <interval begin="630.00" end="660.00" id="4" nVehContrib="2" flow="240.00" occupancy="2.22" speed="15.15" length="5.00" nVehEntered="2"/>
    <interval begin="630.00" end="660.00" id="5" nVehContrib="1" flow="120.00" occupancy="90.45" speed="0.35" length="5.00" nVehEntered="1"/>
    <interval begin="630.00" end="660.00" id="6" nVehContrib="1" flow="120.00" occupancy="19.74" speed="1.49" length="5.00" nVehEntered="2"/>
    <interval begin="630.00" end="660.00" id="7" nVehContrib="2" flow="240.00" occupancy="81.16" speed="0.35" length="5.00" nVehEntered="1"/>
    <interval begin="660.00" end="690.00" id="0" nVehContrib="1" flow="120.00" occupancy="14.58" speed="1.14" length="5.00" nVehEntered="1"/>
    <interval begin="660.00" end="690.00" id="1" nVehContrib="1" flow="120.00" occupancy="89.29" speed="0.18" length="5.00" nVehEntered="1"/>
    <interval begin="660.00" end="690.00" id="2" nVehContrib="4" flow="480.00" occupancy="7.81" speed="9.39" length="5.00" nVehEntered="4"/>
    <interval begin="660.00" end="690.00" id="3" nVehContrib="2" flow="240.00" occupancy="81.53" speed="1.56" length="5.00" nVehEntered="3"/>
    <interval begin="660.00" end="690.00" id="4" nVehContrib="0" flow="0.00" occupancy="0.00" speed="-1.00" length="-1.00" nVehEntered="0"/>
    <interval begin="660.00" end="690.00" id="5" nVehContrib="1" flow="120.00" occupancy="87.19" speed="0.18" length="5.00" nVehEntered="1"/>
    <interval begin="660.00" end="690.00" id="6" nVehContrib="2" flow="240.00" occupancy="18.71" speed="1.35" length="5.00" nVehEntered="2"/>
    <interval begin="660.00" end="690.00" id="7" nVehContrib="1" flow="120.00" occupancy="88.25" speed="0.43" length="5.00" nVehEntered="2"/>
    <interval begin="690.00" end="720.00" id="0" nVehContrib="1" flow="120.00" occupancy="20.34" speed="0.82" length="5.00" nVehEntered="1"/>
    <interval begin="690.00" end="720.00" id="1" nVehContrib="2" flow="240.00" occupancy="76.54" speed="0.29" length="5.00" nVehEntered="2"/>
    <interval begin="690.00" end="720.00" id="2" nVehContrib="1" flow="120.00" occupancy="1.45" speed="11.51" length="5.00" nVehEntered="1"/>
    <interval begin="690.00" end="720.00" id="3" nVehContrib="1" flow="120.00" occupancy="87.03" speed="0.19" length="5.00" nVehEntered="1"/>
    <interval begin="690.00" end="720.00" id="4" nVehContrib="2" flow="240.00" occupancy="2.12" speed="15.76" length="5.00" nVehEntered="2"/>
    <interval begin="690.00" end="720.00" id="5" nVehContrib="2" flow="240.00" occupancy="78.40" speed="0.29" length="5.00" nVehEntered="2"/>
    <interval begin="690.00" end="720.00" id="6" nVehContrib="1" flow="120.00" occupancy="36.56" speed="1.41" length="5.00" nVehEntered="1"/>
    <interval begin="690.00" end="720.00" id="7" nVehContrib="1" flow="120.00" occupancy="41.58" speed="0.32" length="5.00" nVehEntered="1"/>
    <interval begin="720.00" end="750.00" id="0" nVehContrib="2" flow="240.00" occupancy="25.34" speed="1.34" length="5.00" nVehEntered="2"/>
    <interval begin="720.00" end="750.00" id="1" nVehContrib="3" flow="360.00" occupancy="84.17" speed="1.11" length="5.00" nVehEntered="2"/>
    <interval begin="720.00" end="750.00" id="2" nVehContrib="2" flow="240.00" occupancy="6.38" speed="5.37" length="5.00" nVehEntered="2"/>
    <interval begin="720.00" end="750.00" id="3" nVehContrib="1" flow="120.00" occupancy="89.00" speed="0.16" length="5.00" nVehEntered="1"/>
    <interval begin="720.00" end="750.00" id="4" nVehContrib="2" flow="240.00" occupancy="2.21" speed="15.13" length="5.00" nVehEntered="2"/>
    <interval begin="720.00" end="750.00" id="5" nVehContrib="1" flow="120.00" occupancy="89.45" speed="0.42" length="5.00" nVehEntered="1"/>
    <interval begin="720.00" end="750.00" id="6" nVehContrib="1" flow="120.00" occupancy="18.93" speed="0.36" length="5.00" nVehEntered="0"/>
    <interval begin="720.00" end="750.00" id="7" nVehContrib="1" flow="120.00" occupancy="88.53" speed="0.16" length="5.00" nVehEntered="1"/>
    <interval begin="750.00" end="780.00" id="0" nVehContrib="1" flow="120.00" occupancy="32.25" speed="2.80" length="5.00" nVehEntered="2"/>
    <interval begin="750.00" end="780.00" id="1" nVehContrib="0" flow="0.00" occupancy="44.36" speed="-1.00" length="-1.00" nVehEntered="1"/>
    <interval begin="750.00" end="780.00" id="2" nVehContrib="1" flow="120.00" occupancy="16.20" speed="1.03" length="5.00" nVehEntered="1"/>
    <interval begin="750.00" end="780.00" id="3" nVehContrib="1" flow="120.00" occupancy="88.10" speed="0.18" length="5.00" nVehEntered="1"/>
    <interval begin="750.00" end="780.00" id="4" nVehContrib="2" flow="240.00" occupancy="3.02" speed="11.05" length="5.00" nVehEntered="2"/>