<?xml version="1.0" encoding="UTF-8"?>

<!-- generated on Tuesday 24 January 2017 10:45:07 PM IST by SUMO gui Version 0.28.0
<?xml version="1.0" encoding="UTF-8"?>

<configuration xmlns:xsi="http://www.w3.org/2001/XMLSchema-instance" xsi:noNamespaceSchemaLocation="http://sumo.dlr.de/xsd/sumo-gui.exeConfiguration.xsd">

    <input>
        <net-file value="data/cross.net.xml"/>
        <route-files value="data/cross.rou.xml"/>
        <additional-files value="data/cross.det.xml"/>
    </input>

    <output>
        <tripinfo-output value="tripinfo.xml"/>
    </output>

    <time>
        <begin value="0"/>
    </time>

    <report>
        <verbose value="true"/>
        <no-step-log value="true"/>
    </report>

    <traci_server>
        <remote-port value="46093"/>
    </traci_server>

</configuration>
-->

<detector xmlns:xsi="http://www.w3.org/2001/XMLSchema-instance" xsi:noNamespaceSchemaLocation="http://sumo.dlr.de/xsd/det_e1_file.xsd">
    <interval begin="0.00" end="30.00" id="0" nVehContrib="0" flow="0.00" occupancy="0.00" speed="-1.00" length="-1.00" nVehEntered="0"/>
    <interval begin="0.00" end="30.00" id="1" nVehContrib="0" flow="0.00" occupancy="0.00" speed="-1.00" length="-1.00" nVehEntered="0"/>
    <interval begin="0.00" end="30.00" id="2" nVehContrib="0" flow="0.00" occupancy="0.00" speed="-1.00" length="-1.00" nVehEntered="0"/>
    <interval begin="0.00" end="30.00" id="3" nVehContrib="0" flow="0.00" occupancy="0.00" speed="-1.00" length="-1.00" nVehEntered="0"/>
    <interval begin="0.00" end="30.00" id="4" nVehContrib="0" flow="0.00" occupancy="0.00" speed="-1.00" length="-1.00" nVehEntered="0"/>
    <interval begin="0.00" end="30.00" id="5" nVehContrib="0" flow="0.00" occupancy="0.00" speed="-1.00" length="-1.00" nVehEntered="0"/>
    <interval begin="0.00" end="30.00" id="6" nVehContrib="0" flow="0.00" occupancy="0.00" speed="-1.00" length="-1.00" nVehEntered="0"/>
    <interval begin="0.00" end="30.00" id="7" nVehContrib="0" flow="0.00" occupancy="0.00" speed="-1.00" length="-1.00" nVehEntered="0"/>
    <interval begin="30.00" end="60.00" id="0" nVehContrib="4" flow="480.00" occupancy="4.05" speed="16.45" length="5.00" nVehEntered="4"/>
    <interval begin="30.00" end="60.00" id="1" nVehContrib="0" flow="0.00" occupancy="44.35" speed="-1.00" length="-1.00" nVehEntered="1"/>
    <interval begin="30.00" end="60.00" id="2" nVehContrib="4" flow="480.00" occupancy="4.46" speed="16.44" length="5.00" nVehEntered="5"/>
    <interval begin="30.00" end="60.00" id="3" nVehContrib="3" flow="360.00" occupancy="3.29" speed="15.19" length="5.00" nVehEntered="3"/>
    <interval begin="30.00" end="60.00" id="4" nVehContrib="5" flow="600.00" occupancy="5.07" speed="16.42" length="5.00" nVehEntered="5"/>
    <interval begin="30.00" end="60.00" id="5" nVehContrib="0" flow="0.00" occupancy="50.68" speed="-1.00" length="-1.00" nVehEntered="1"/>
    <interval begin="30.00" end="60.00" id="6" nVehContrib="4" flow="480.00" occupancy="4.06" speed="16.42" length="5.00" nVehEntered="4"/>
    <interval begin="30.00" end="60.00" id="7" nVehContrib="3" flow="360.00" occupancy="3.41" speed="14.69" length="5.00" nVehEntered="3"/>
    <interval begin="60.00" end="90.00" id="0" nVehContrib="6" flow="720.00" occupancy="6.08" speed="16.45" length="5.00" nVehEntered="6"/>
    <interval begin="60.00" end="90.00" id="1" nVehContrib="9" flow="1080.00" occupancy="35.62" speed="5.89" length="5.00" nVehEntered="8"/>
    <interval begin="60.00" end="90.00" id="2" nVehContrib="3" flow="360.00" occupancy="2.63" speed="16.46" length="5.00" nVehEntered="2"/>
    <interval begin="60.00" end="90.00" id="3" nVehContrib="1" flow="120.00" occupancy="78.69" speed="15.14" length="5.00" nVehEntered="2"/>
    <interval begin="60.00" end="90.00" id="4" nVehContrib="5" flow="600.00" occupancy="5.05" speed="16.51" length="5.00" nVehEntered="5"/>
    <interval begin="60.00" end="90.00" id="5" nVehContrib="9" flow="1080.00" occupancy="36.46" speed="5.62" length="5.00" nVehEntered="8"/>
    <interval begin="60.00" end="90.00" id="6" nVehContrib="6" flow="720.00" occupancy="6.07" speed="16.48" length="5.00" nVehEntered="6"/>
    <interval begin="60.00" end="90.00" id="7" nVehContrib="0" flow="0.00" occupancy="86.85" speed="-1.00" length="-1.00" nVehEntered="1"/>
    <interval begin="90.00" end="120.00" id="0" nVehContrib="6" flow="720.00" occupancy="6.06" speed="16.50" length="5.00" nVehEntered="6"/>
    <interval begin="90.00" end="120.00" id="1" nVehContrib="6" flow="720.00" occupancy="7.02" speed="14.31" length="5.00" nVehEntered="6"/>
    <interval begin="90.00" end="120.00" id="2" nVehContrib="5" flow="600.00" occupancy="5.08" speed="16.41" length="5.00" nVehEntered="5"/>
    <interval begin="90.00" end="120.00" id="3" nVehContrib="0" flow="0.00" occupancy="100.00" speed="-1.00" length="-1.00" nVehEntered="0"/>
    <interval begin="90.00" end="120.00" id="4" nVehContrib="5" flow="600.00" occupancy="5.06" speed="16.48" length="5.00" nVehEntered="5"/>
    <interval begin="90.00" end="120.00" id="5" nVehContrib="5" flow="600.00" occupancy="5.86" speed="14.35" length="5.00" nVehEntered="5"/>
    <interval begin="90.00" end="120.00" id="6" nVehContrib="5" flow="600.00" occupancy="5.27" speed="15.87" length="5.00" nVehEntered="5"/>
    <interval begin="90.00" end="120.00" id="7" nVehContrib="0" flow="0.00" occupancy="100.00" speed="-1.00" length="-1.00" nVehEntered="0"/>
    <interval begin="120.00" end="150.00" id="0" nVehContrib="6" flow="720.00" occupancy="6.06" speed="16.50" length="5.00" nVehEntered="6"/>
    <interval begin="120.00" end="150.00" id="1" nVehContrib="1" flow="120.00" occupancy="100.00" speed="0.00" length="5.00" nVehEntered="1"/>
    <interval begin="120.00" end="150.00" id="2" nVehContrib="6" flow="720.00" occupancy="6.66" speed="15.11" length="5.00" nVehEntered="6"/>
    <interval begin="120.00" end="150.00" id="3" nVehContrib="9" flow="1080.00" occupancy="44.31" speed="4.97" length="5.00" nVehEntered="8"/>
    <interval begin="120.00" end="150.00" id="4" nVehContrib="6" flow="720.00" occupancy="6.07" speed="16.47" length="5.00" nVehEntered="6"/>
    <interval begin="120.00" end="150.00" id="5" nVehContrib="0" flow="0.00" occupancy="82.50" speed="-1.00" length="-1.00" nVehEntered="1"/>
    <interval begin="120.00" end="150.00" id="6" nVehContrib="4" flow="480.00" occupancy="21.09" speed="4.92" length="5.00" nVehEntered="4"/>
    <interval begin="120.00" end="150.00" id="7" nVehContrib="9" flow="1080.00" occupancy="44.15" speed="5.16" length="5.00" nVehEntered="9"/>
    <interval begin="150.00" end="180.00" id="0" nVehContrib="5" flow="600.00" occupancy="5.05" speed="16.50" length="5.00" nVehEntered="5"/>
    <interval begin="150.00" end="180.00" id="1" nVehContrib="8" flow="960.00" occupancy="28.58" speed="5.47" length="5.00" nVehEntered="8"/>
    <interval begin="150.00" end="180.00" id="2" nVehContrib="6" flow="720.00" occupancy="6.05" speed="16.54" length="5.00" nVehEntered="6"/>
    <interval begin="150.00" end="180.00" id="3" nVehContrib="2" flow="240.00" occupancy="87.65" speed="8.74" length="5.00" nVehEntered="3"/>
    <interval begin="150.00" end="180.00" id="4" nVehContrib="5" flow="600.00" occupancy="5.08" speed="16.39" length="5.00" nVehEntered="5"/>
    <interval begin="150.00" end="180.00" id="5" nVehContrib="9" flow="1080.00" occupancy="50.75" speed="4.82" length="5.00" nVehEntered="8"/>
    <interval begin="150.00" end="180.00" id="6" nVehContrib="8" flow="960.00" occupancy="15.74" speed="10.68" length="5.00" nVehEntered="8"/>
    <interval begin="150.00" end="180.00" id="7" nVehContrib="3" flow="360.00" occupancy="84.13" speed="9.13" length="5.00" nVehEntered="3"/>
    <interval begin="180.00" end="210.00" id="0" nVehContrib="6" flow="720.00" occupancy="6.10" speed="16.38" length="5.00" nVehEntered="6"/>
    <interval begin="180.00" end="210.00" id="1" nVehContrib="3" flow="360.00" occupancy="81.65" speed="9.10" length="5.00" nVehEntered="4"/>
    <interval begin="180.00" end="210.00" id="2" nVehContrib="5" flow="600.00" occupancy="7.21" speed="12.17" length="5.00" nVehEntered="5"/>
    <interval begin="180.00" end="210.00" id="3" nVehContrib="8" flow="960.00" occupancy="49.65" speed="4.60" length="5.00" nVehEntered="7"/>
    <interval begin="180.00" end="210.00" id="4" nVehContrib="5" flow="600.00" occupancy="5.06" speed="16.47" length="5.00" nVehEntered="5"/>
    <interval begin="180.00" end="210.00" id="5" nVehContrib="2" flow="240.00" occupancy="84.41" speed="8.35" length="5.00" nVehEntered="3"/>
    <interval begin="180.00" end="210.00" id="6" nVehContrib="3" flow="360.00" occupancy="16.10" speed="5.35" length="5.00" nVehEntered="4"/>
    <interval begin="180.00" end="210.00" id="7" nVehContrib="8" flow="960.00" occupancy="48.78" speed="4.87" length="5.00" nVehEntered="8"/>
    <interval begin="210.00" end="240.00" id="0" nVehContrib="6" flow="720.00" occupancy="6.16" speed="16.24" length="5.00" nVehEntered="6"/>
    <interval begin="210.00" end="240.00" id="1" nVehContrib="8" flow="960.00" occupancy="52.75" speed="4.55" length="5.00" nVehEntered="7"/>
    <interval begin="210.00" end="240.00" id="2" nVehContrib="5" flow="600.00" occupancy="5.42" speed="15.64" length="5.00" nVehEntered="5"/>
    <interval begin="210.00" end="240.00" id="3" nVehContrib="3" flow="360.00" occupancy="84.22" speed="8.12" length="5.00" nVehEntered="4"/>
    <interval begin="210.00" end="240.00" id="4" nVehContrib="6" flow="720.00" occupancy="6.16" speed="16.25" length="5.00" nVehEntered="6"/>
    <interval begin="210.00" end="240.00" id="5" nVehContrib="8" flow="960.00" occupancy="51.86" speed="4.77" length="5.00" nVehEntered="7"/>
    <interval begin="210.00" end="240.00" id="6" nVehContrib="8" flow="960.00" occupancy="20.23" speed="8.49" length="5.00" nVehEntered="7"/>
    <interval begin="210.00" end="240.00" id="7" nVehContrib="4" flow="480.00" occupancy="79.71" speed="8.03" length="5.00" nVehEntered="4"/>
    <interval begin="240.00" end="270.00" id="0" nVehContrib="5" flow="600.00" occupancy="5.04" speed="16.54" length="5.00" nVehEntered="5"/>
    <interval begin="240.00" end="270.00" id="1" nVehContrib="4" flow="480.00" occupancy="78.59" speed="8.59" length="5.00" nVehEntered="5"/>
    <interval begin="240.00" end="270.00" id="2" nVehContrib="6" flow="720.00" occupancy="7.69" speed="13.44" length="5.00" nVehEntered="6"/>
    <interval begin="240.00" end="270.00" id="3" nVehContrib="7" flow="840.00" occupancy="54.89" speed="4.30" length="5.00" nVehEntered="7"/>
    <interval begin="240.00" end="270.00" id="4" nVehContrib="5" flow="600.00" occupancy="5.84" speed="16.47" length="5.00" nVehEntered="6"/>
    <interval begin="240.00" end="270.00" id="5" nVehContrib="4" flow="480.00" occupancy="77.59" speed="9.00" length="5.00" nVehEntered="5"/>
    <interval begin="240.00" end="270.00" id="6" nVehContrib="4" flow="480.00" occupancy="16.70" speed="7.32" length="5.00" nVehEntered="4"/>
    <interval begin="240.00" end="270.00" id="7" nVehContrib="8" flow="960.00" occupancy="55.61" speed="4.68" length="5.00" nVehEntered="7"/>
    <interval begin="270.00" end="300.00" id="0" nVehContrib="6" flow="720.00" occupancy="6.04" speed="16.55" length="5.00" nVehEntered="6"/>
    <interval begin="270.00" end="300.00" id="1" nVehContrib="7" flow="840.00" occupancy="56.84" speed="4.33" length="5.00" nVehEntered="6"/>
    <interval begin="270.00" end="300.00" id="2" nVehContrib="5" flow="600.00" occupancy="5.30" speed="15.86" length="5.00" nVehEntered="5"/>
    <interval begin="270.00" end="300.00" id="3" nVehContrib="5" flow="600.00" occupancy="73.32" speed="8.51" length="5.00" nVehEntered="5"/>
    <interval begin="270.00" end="300.00" id="4" nVehContrib="6" flow="720.00" occupancy="5.29" speed="16.48" length="5.00" nVehEntered="5"/>
    <interval begin="270.00" end="300.00" id="5" nVehContrib="7" flow="840.00" occupancy="55.75" speed="4.42" length="5.00" nVehEntered="6"/>
    <interval begin="270.00" end="300.00" id="6" nVehContrib="7" flow="840.00" occupancy="17.62" speed="9.93" length="5.00" nVehEntered="7"/>
    <interval begin="270.00" end="300.00" id="7" nVehContrib="4" flow="480.00" occupancy="74.35" speed="7.50" length="5.00" nVehEntered="5"/>
    <interval begin="300.00" end="330.00" id="0" nVehContrib="5" flow="600.00" occupancy="5.07" speed="16.44" length="5.00" nVehEntered="5"/>
    <interval begin="300.00" end="330.00" id="1" nVehContrib="8" flow="960.00" occupancy="15.02" speed="9.67" length="5.00" nVehEntered="8"/>
    <interval begin="300.00" end="330.00" id="2" nVehContrib="6" flow="720.00" occupancy="7.24" speed="14.41" length="5.00" nVehEntered="6"/>
    <interval begin="300.00" end="330.00" id="3" nVehContrib="0" flow="0.00" occupancy="100.00" speed="-1.00" length="-1.00" nVehEntered="0"/>
    <interval begin="300.00" end="330.00" id="4" nVehContrib="4" flow="480.00" occupancy="4.03" speed="16.54" length="5.00" nVehEntered="4"/>
    <interval begin="300.00" end="330.00" id="5" nVehContrib="7" flow="840.00" occupancy="11.92" speed="10.60" length="5.00" nVehEntered="7"/>
    <interval begin="300.00" end="330.00" id="6" nVehContrib="4" flow="480.00" occupancy="6.81" speed="11.39" length="5.00" nVehEntered="4"/>
    <interval begin="300.00" end="330.00" id="7" nVehContrib="0" flow="0.00" occupancy="100.00" speed="-1.00" length="-1.00" nVehEntered="0"/>
    <interval begin="330.00" end="360.00" id="0" nVehContrib="6" flow="720.00" occupancy="6.06" speed="16.50" length="5.00" nVehEntered="6"/>
    <interval begin="330.00" end="360.00" id="1" nVehContrib="2" flow="240.00" occupancy="60.12" speed="14.52" length="5.00" nVehEntered="3"/>
    <interval begin="330.00" end="360.00" id="2" nVehContrib="1" flow="120.00" occupancy="6.02" speed="4.98" length="5.00" nVehEntered="2"/>
    <interval begin="330.00" end="360.00" id="3" nVehContrib="6" flow="720.00" occupancy="60.27" speed="3.87" length="5.00" nVehEntered="6"/>
    <interval begin="330.00" end="360.00" id="4" nVehContrib="6" flow="720.00" occupancy="6.08" speed="16.44" length="5.00" nVehEntered="6"/>
    <interval begin="330.00" end="360.00" id="5" nVehContrib="3" flow="360.00" occupancy="46.48" speed="13.70" length="5.00" nVehEntered="4"/>
    <interval begin="330.00" end="360.00" id="6" nVehContrib="0" flow="0.00" occupancy="2.60" speed="-1.00" length="-1.00" nVehEntered="1"/>
    <interval begin="330.00" end="360.00" id="7" nVehContrib="6" flow="720.00" occupancy="61.44" speed="3.60" length="5.00" nVehEntered="5"/>
    <interval begin="360.00" end="390.00" id="0" nVehContrib="5" flow="600.00" occupancy="5.06" speed="16.45" length="5.00" nVehEntered="5"/>
    <interval begin="360.00" end="390.00" id="1" nVehContrib="6" flow="720.00" occupancy="63.73" speed="3.85" length="5.00" nVehEntered="5"/>
    <interval begin="360.00" end="390.00" id="2" nVehContrib="10" flow="1200.00" occupancy="31.71" speed="6.57" length="5.00" nVehEntered="9"/>
    <interval begin="360.00" end="390.00" id="3" nVehContrib="6" flow="720.00" occupancy="68.40" speed="8.38" length="5.00" nVehEntered="6"/>
    <interval begin="360.00" end="390.00" id="4" nVehContrib="6" flow="720.00" occupancy="6.06" speed="16.50" length="5.00" nVehEntered="6"/>
    <interval begin="360.00" end="390.00" id="5" nVehContrib="5" flow="600.00" occupancy="63.42" speed="3.43" length="5.00" nVehEntered="5"/>
    <interval begin="360.00" end="390.00" id="6" nVehContrib="11" flow="1320.00" occupancy="36.77" speed="6.11" length="5.00" nVehEntered="11"/>
    <interval begin="360.00" end="390.00" id="7" nVehContrib="6" flow="720.00" occupancy="69.92" speed="7.74" length="5.00" nVehEntered="7"/>
    <interval begin="390.00" end="420.00" id="0" nVehContrib="5" flow="600.00" occupancy="5.06" speed="16.47" length="5.00" nVehEntered="5"/>
    <interval begin="390.00" end="420.00" id="1" nVehContrib="5" flow="600.00" occupancy="62.35" speed="7.96" length="5.00" nVehEntered="6"/>
    <interval begin="390.00" end="420.00" id="2" nVehContrib="2" flow="240.00" occupancy="4.72" speed="7.77" length="5.00" nVehEntered="2"/>
    <interval begin="390.00" end="420.00" id="3" nVehContrib="5" flow="600.00" occupancy="64.98" speed="3.55" length="5.00" nVehEntered="5"/>
    <interval begin="390.00" end="420.00" id="4" nVehContrib="5" flow="600.00" occupancy="5.06" speed="16.47" length="5.00" nVehEntered="5"/>
    <interval begin="390.00" end="420.00" id="5" nVehContrib="6" flow="720.00" occupancy="64.21" speed="7.44" length="5.00" nVehEntered="6"/>
    <interval begin="390.00" end="420.00" id="6" nVehContrib="1" flow="120.00" occupancy="3.31" speed="4.59" length="5.00" nVehEntered="0"/>
    <interval begin="390.00" end="420.00" id="7" nVehContrib="5" flow="600.00" occupancy="65.16" speed="3.50" length="5.00" nVehEntered="5"/>
    <interval begin="420.00" end="450.00" id="0" nVehContrib="5" flow="600.00" occupancy="6.01" speed="16.45" length="5.00" nVehEntered="6"/>
    <interval begin="420.00" end="450.00" id="1" nVehContrib="5" flow="600.00" occupancy="67.56" speed="3.38" length="5.00" nVehEntered="4"/>
    <interval begin="420.00" end="450.00" id="2" nVehContrib="10" flow="1200.00" occupancy="36.09" speed="5.98" length="5.00" nVehEntered="10"/>
    <interval begin="420.00" end="450.00" id="3" nVehContrib="6" flow="720.00" occupancy="67.09" speed="7.82" length="5.00" nVehEntered="6"/>
    <interval begin="420.00" end="450.00" id="4" nVehContrib="6" flow="720.00" occupancy="6.07" speed="16.48" length="5.00" nVehEntered="6"/>
    <interval begin="420.00" end="450.00" id="5" nVehContrib="5" flow="600.00" occupancy="67.42" speed="3.37" length="5.00" nVehEntered="4"/>
    <interval begin="420.00" end="450.00" id="6" nVehContrib="11" flow="1320.00" occupancy="42.72" speed="5.49" length="5.00" nVehEntered="11"/>
    <interval begin="420.00" end="450.00" id="7" nVehContrib="6" flow="720.00" occupancy="67.90" speed="7.56" length="5.00" nVehEntered="6"/>
    <interval begin="450.00" end="480.00" id="0" nVehContrib="6" flow="720.00" occupancy="5.13" speed="16.47" length="5.00" nVehEntered="5"/>
    <interval begin="450.00" end="480.00" id="1" nVehContrib="7" flow="840.00" occupancy="112.26" speed="721.50" length="5.00" nVehEntered="7"/>
    <interval begin="450.00" end="480.00" id="2" nVehContrib="1" flow="120.00" occupancy="3.12" speed="5.35" length="5.00" nVehEntered="1"/>
    <interval begin="450.00" end="480.00" id="3" nVehContrib="4" flow="480.00" occupancy="70.29" speed="2.89" length="5.00" nVehEntered="4"/>
    <interval begin="450.00" end="480.00" id="4" nVehContrib="5" flow="600.00" occupancy="5.06" speed="16.46" length="5.00" nVehEntered="5"/>
    <interval begin="450.00" end="480.00" id="5" nVehContrib="7" flow="840.00" occupancy="112.89" speed="721.09" length="5.00" nVehEntered="7"/>
    <interval begin="450.00" end="480.00" id="6" nVehContrib="0" flow="0.00" occupancy="0.00" speed="-1.00" length="-1.00" nVehEntered="0"/>
    <interval begin="450.00" end="480.00" id="7" nVehContrib="4" flow="480.00" occupancy="69.04" speed="2.95" length="5.00" nVehEntered="4"/>
    <interval begin="480.00" end="510.00" id="0" nVehContrib="6" flow="720.00" occupancy="6.09" speed="16.42" length="5.00" nVehEntered="6"/>
    <interval begin="480.00" end="510.00" id="1" nVehContrib="3" flow="360.00" occupancy="17.47" speed="3.26" length="5.00" nVehEntered="4"/>
    <interval begin="480.00" end="510.00" id="2" nVehContrib="10" flow="1200.00" occupancy="36.72" speed="5.98" length="5.00" nVehEntered="10"/>
    <interval begin="480.00" end="510.00" id="3" nVehContrib="7" flow="840.00" occupancy="61.82" speed="7.48" length="5.00" nVehEntered="7"/>
    <interval begin="480.00" end="510.00" id="4" nVehContrib="5" flow="600.00" occupancy="5.05" speed="16.49" length="5.00" nVehEntered="5"/>
    <interval begin="480.00" end="510.00" id="5" nVehContrib="3" flow="360.00" occupancy="16.03" speed="3.53" length="5.00" nVehEntered="3"/>
    <interval begin="480.00" end="510.00" id="6" nVehContrib="10" flow="1200.00" occupancy="36.86" speed="5.81" length="5.00" nVehEntered="10"/>
    <interval begin="480.00" end="510.00" id="7" nVehContrib="7" flow="840.00" occupancy="63.13" speed="7.50" length="5.00" nVehEntered="7"/>
    <interval begin="510.00" end="540.00" id="0" nVehContrib="5" flow="600.00" occupancy="5.07" speed="16.43" length="5.00" nVehEntered="5"/>
    <interval begin="510.00" end="540.00" id="1" nVehContrib="8" flow="960.00" occupancy="48.33" speed="7.75" length="5.00" nVehEntered="8"/>
    <interval begin="510.00" end="540.00" id="2" nVehContrib="1" flow="120.00" occupancy="3.32" speed="5.02" length="5.00" nVehEntered="1"/>
    <interval begin="510.00" end="540.00" id="3" nVehContrib="4" flow="480.00" occupancy="74.82" speed="2.71" length="5.00" nVehEntered="3"/>
    <interval begin="510.00" end="540.00" id="4" nVehContrib="6" flow="720.00" occupancy="6.04" speed="16.55" length="5.00" nVehEntered="6"/>
    <interval begin="510.00" end="540.00" id="5" nVehContrib="8" flow="960.00" occupancy="115.94" speed="6.56" length="5.00" nVehEntered="8"/>
    <interval begin="510.00" end="540.00" id="6" nVehContrib="1" flow="120.00" occupancy="3.59" speed="4.64" length="5.00" nVehEntered="1"/>
    <interval begin="510.00" end="540.00" id="7" nVehContrib="4" flow="480.00" occupancy="74.57" speed="2.85" length="5.00" nVehEntered="3"/>
    <interval begin="540.00" end="570.00" id="0" nVehContrib="6" flow="720.00" occupancy="6.10" speed="16.41" length="5.00" nVehEntered="6"/>
    <interval begin="540.00" end="570.00" id="1" nVehContrib="4" flow="480.00" occupancy="77.96" speed="2.88" length="5.00" nVehEntered="3"/>
    <interval begin="540.00" end="570.00" id="2" nVehContrib="9" flow="1080.00" occupancy="36.48" speed="5.63" length="5.00" nVehEntered="9"/>
    <interval begin="540.00" end="570.00" id="3" nVehContrib="7" flow="840.00" occupancy="56.63" speed="7.46" length="5.00" nVehEntered="8"/>
    <interval begin="540.00" end="570.00" id="4" nVehContrib="6" flow="720.00" occupancy="6.08" speed="16.44" length="5.00" nVehEntered="6"/>
    <interval begin="540.00" end="570.00" id="5" nVehContrib="2" flow="240.00" occupancy="15.63" speed="2.88" length="5.00" nVehEntered="3"/>
    <interval begin="540.00" end="570.00" id="6" nVehContrib="9" flow="1080.00" occupancy="35.57" speed="5.30" length="5.00" nVehEntered="10"/>
    <interval begin="540.00" end="570.00" id="7" nVehContrib="8" flow="960.00" occupancy="56.17" speed="7.98" length="5.00" nVehEntered="9"/>
    <interval begin="570.00" end="600.00" id="0" nVehContrib="6" flow="720.00" occupancy="6.08" speed="16.43" length="5.00" nVehEntered="6"/>
    <interval begin="570.00" end="600.00" id="1" nVehContrib="8" flow="960.00" occupancy="116.11" speed="631.48" length="5.00" nVehEntered="8"/>
    <interval begin="570.00" end="600.00" id="2" nVehContrib="2" flow="240.00" occupancy="7.40" speed="5.28" length="5.00" nVehEntered="2"/>
    <interval begin="570.00" end="600.00" id="3" nVehContrib="3" flow="360.00" occupancy="79.50" speed="2.29" length="5.00" nVehEntered="3"/>
    <interval begin="570.00" end="600.00" id="4" nVehContrib="5" flow="600.00" occupancy="5.56" speed="16.53" length="5.00" nVehEntered="6"/>
    <interval begin="570.00" end="600.00" id="5" nVehContrib="9" flow="1080.00" occupancy="49.12" speed="7.14" length="5.00" nVehEntered="9"/>
    <interval begin="570.00" end="600.00" id="6" nVehContrib="3" flow="360.00" occupancy="11.73" speed="5.71" length="5.00" nVehEntered="2"/>
    <interval begin="570.00" end="600.00" id="7" nVehContrib="3" flow="360.00" occupancy="78.87" speed="1.97" length="5.00" nVehEntered="2"/>
    <interval begin="600.00" end="630.00" id="0" nVehContrib="5" flow="600.00" occupancy="5.06" speed="16.49" length="5.00" nVehEntered="5"/>
    <interval begin="600.00" end="630.00" id="1" nVehContrib="2" flow="240.00" occupancy="11.03" speed="3.14" length="5.00" nVehEntered="2"/>
    <interval begin="600.00" end="630.00" id="2" nVehContrib="8" flow="960.00" occupancy="33.93" speed="5.04" length="5.00" nVehEntered="8"/>
    <interval begin="600.00" end="630.00" id="3" nVehContrib="8" flow="960.00" occupancy="50.18" speed="7.27" length="5.00" nVehEntered="8"/>
    <interval begin="600.00" end="630.00" id="4" nVehContrib="6" flow="720.00" occupancy="5.57" speed="16.43" length="5.00" nVehEntered="5"/>
    <interval begin="600.00" end="630.00" id="5" nVehContrib="3" flow="360.00" occupancy="80.79" speed="2.23" length="5.00" nVehEntered="2"/>
    <interval begin="600.00" end="630.00" id="6" nVehContrib="8" flow="960.00" occupancy="33.41" speed="5.23" length="5.00" nVehEntered="8"/>
    <interval begin="600.00" end="630.00" id="7" nVehContrib="9" flow="1080.00" occupancy="50.16" speed="7.24" length="5.00" nVehEntered="10"/>
    <interval begin="630.00" end="660.00" id="0" nVehContrib="6" flow="720.00" occupancy="6.07" speed="16.48" length="5.00" nVehEntered="6"/>
    <interval begin="630.00" end="660.00" id="1" nVehContrib="9" flow="1080.00" occupancy="47.33" speed="7.09" length="5.00" nVehEntered="10"/>
    <interval begin="630.00" end="660.00" id="2" nVehContrib="3" flow="360.00" occupancy="8.03" speed="6.73" length="5.00" nVehEntered="3"/>
    <interval begin="630.00" end="660.00" id="3" nVehContrib="2" flow="240.00" occupancy="83.62" speed="1.23" length="5.00" nVehEntered="2"/>
    <interval begin="630.00" end="660.00" id="4" nVehContrib="6" flow="720.00" occupancy="6.05" speed="16.54" length="5.00" nVehEntered="6"/>
    <interval begin="630.00" end="660.00" id="5" nVehContrib="9" flow="1080.00" occupancy="22.24" speed="6.97" length="5.00" nVehEntered="9"/>
    <interval begin="630.00" end="660.00" id="6" nVehContrib="4" flow="480.00" occupancy="10.46" speed="6.86" length="5.00" nVehEntered="4"/>
    <interval begin="630.00" end="660.00" id="7" nVehContrib="2" flow="240.00" occupancy="81.05" speed="1.36" length="5.00" nVehEntered="2"/>
    <interval begin="660.00" end="690.00" id="0" nVehContrib="5" flow="600.00" occupancy="5.04" speed="16.53" length="5.00" nVehEntered="5"/>
    <interval begin="660.00" end="690.00" id="1" nVehContrib="2" flow="240.00" occupancy="83.92" speed="1.26" length="5.00" nVehEntered="1"/>
    <interval begin="660.00" end="690.00" id="2" nVehContrib="6" flow="720.00" occupancy="30.55" speed="4.57" length="5.00" nVehEntered="7"/>
    <interval begin="660.00" end="690.00" id="3" nVehContrib="9" flow="1080.00" occupancy="50.43" speed="6.79" length="5.00" nVehEntered="9"/>
    <interval begin="660.00" end="690.00" id="4" nVehContrib="5" flow="600.00" occupancy="5.03" speed="16.56" length="5.00" nVehEntered="5"/>
    <interval begin="660.00" end="690.00" id="5" nVehContrib="1" flow="120.00" occupancy="7.37" speed="2.26" length="5.00" nVehEntered="1"/>
    <interval begin="660.00" end="690.00" id="6" nVehContrib="7" flow="840.00" occupancy="30.02" speed="5.08" length="5.00" nVehEntered="7"/>
    <interval begin="660.00" end="690.00" id="7" nVehContrib="9" flow="1080.00" occupancy="50.36" speed="6.71" length="5.00" nVehEntered="9"/>
    <interval begin="690.00" end="720.00" id="0" nVehContrib="6" flow="720.00" occupancy="6.05" speed="16.54" length="5.00" nVehEntered="6"/>
    <interval begin="690.00" end="720.00" id="1" nVehContrib="10" flow="1200.00" occupancy="32.49" speed="7.34" length="5.00" nVehEntered="11"/>
    <interval begin="690.00" end="720.00" id="2" nVehContrib="5" flow="600.00" occupancy="9.94" speed="7.09" length="5.00" nVehEntered="4"/>
    <interval begin="690.00" end="720.00" id="3" nVehContrib="2" flow="240.00" occupancy="86.32" speed="1.41" length="5.00" nVehEntered="1"/>
    <interval begin="690.00" end="720.00" id="4" nVehContrib="5" flow="600.00" occupancy="5.05" speed="16.50" length="5.00" nVehEntered="5"/>
    <interval begin="690.00" end="720.00" id="5" nVehContrib="9" flow="1080.00" occupancy="51.30" speed="6.43" length="5.00" nVehEntered="10"/>
    <interval begin="690.00" end="720.00" id="6" nVehContrib="4" flow="480.00" occupancy="10.63" speed="7.22" length="5.00" nVehEntered="4"/>
    <interval begin="690.00" end="720.00" id="7" nVehContrib="2" flow="240.00" occupancy="87.79" speed="1.30" length="5.00" nVehEntered="1"/>
    <interval begin="720.00" end="750.00" id="0" nVehContrib="5" flow="600.00" occupancy="5.05" speed="16.49" length="5.00" nVehEntered="5"/>
    <interval begin="720.00" end="750.00" id="1" nVehContrib="1" flow="120.00" occupancy="89.57" speed="0.18" length="5.00" nVehEntered="1"/>
    <interval begin="720.00" end="750.00" id="2" nVehContrib="6" flow="720.00" occupancy="29.55" speed="4.60" length="5.00" nVehEntered="7"/>
    <interval begin="720.00" end="750.00" id="3" nVehContrib="10" flow="1200.00" occupancy="44.19" speed="6.78" length="5.00" nVehEntered="11"/>
    <interval begin="720.00" end="750.00" id="4" nVehContrib="6" flow="720.00" occupancy="6.05" speed="16.53" length="5.00" nVehEntered="6"/>
    <interval begin="720.00" end="750.00" id="5" nVehContrib="1" flow="120.00" occupancy="89.08" speed="0.15" length="5.00" nVehEntered="1"/>
    <interval begin="720.00" end="750.00" id="6" nVehContrib="6" flow="720.00" occupancy="28.76" speed="4.53" length="5.00" nVehEntered="7"/>
    <interval begin="720.00" end="750.00" id="7" nVehContrib="10" flow="1200.00" occupancy="43.23" speed="6.85" length="5.00" nVehEntered="11"/>
    <interval begin="750.00" end="780.00" id="0" nVehContrib="6" flow="720.00" occupancy="6.07" speed="16.49" length="5.00" nVehEntered="6"/>
    <interval begin="750.00" end="780.00" id="1" nVehContrib="10" flow="1200.00" occupancy="32.56" speed="6.85" length="5.00" nVehEntered="10"/>
    <interval begin="750.00" end="780.00" id="2" nVehContrib="6" flow="720.00" occupancy="12.39" speed="7.28" length="5.00" nVehEntered="5"/>
    <interval begin="750.00" end="780.00" id="3" nVehContrib="1" flow="120.00" occupancy="90.87" speed="0.16" length="5.00" nVehEntered="1"/>